       N       E                     dE             d eps       ncg     rms          rms(c)
DAV:   1     0.217058910639E+04    0.21706E+04   -0.27144E+05   954   0.107E+03
DAV:   2    -0.122292603703E+04   -0.33935E+04   -0.32151E+04  1159   0.225E+02
DAV:   3    -0.152593784109E+04   -0.30301E+03   -0.29857E+03  1172   0.650E+01
DAV:   4    -0.154108186764E+04   -0.15144E+02   -0.15091E+02  1372   0.149E+01
DAV:   5    -0.154148101378E+04   -0.39915E+00   -0.39841E+00  1260   0.231E+00    0.722E+01
RMM:   6    -0.142689521364E+04    0.11459E+03   -0.36976E+02   957   0.174E+01    0.341E+01
RMM:   7    -0.141815832727E+04    0.87369E+01   -0.57699E+01   957   0.707E+00    0.157E+01
RMM:   8    -0.141618956821E+04    0.19688E+01   -0.54190E+00   973   0.253E+00    0.341E+00
RMM:   9    -0.141609435545E+04    0.95213E-01   -0.82589E-01   974   0.977E-01    0.106E+00
RMM:  10    -0.141608746128E+04    0.68942E-02   -0.17565E-01  1018   0.400E-01    0.554E-01
RMM:  11    -0.141608815552E+04   -0.69425E-03   -0.56290E-02   957   0.245E-01    0.251E-01
RMM:  12    -0.141609398601E+04   -0.58305E-02   -0.21125E-02   965   0.143E-01    0.137E-01
RMM:  13    -0.141610047789E+04   -0.64919E-02   -0.79284E-03   974   0.843E-02    0.813E-02
RMM:  14    -0.141610329254E+04   -0.28146E-02   -0.17148E-03   972   0.458E-02    0.320E-02
RMM:  15    -0.141610408350E+04   -0.79096E-03   -0.38877E-04   992   0.223E-02    0.152E-02
RMM:  16    -0.141610419916E+04   -0.11566E-03   -0.90212E-05  1005   0.102E-02    0.744E-03
RMM:  17    -0.141610422774E+04   -0.28581E-04   -0.11875E-05   890   0.365E-03    0.341E-03
RMM:  18    -0.141610423813E+04   -0.10387E-04   -0.39775E-06   697   0.208E-03    0.131E-03
RMM:  19    -0.141610423947E+04   -0.13429E-05   -0.82030E-07   602   0.102E-03    0.466E-04
RMM:  20    -0.141610423966E+04   -0.18765E-06   -0.27452E-07   592   0.633E-04
   1 F= -.14161042E+04 E0= -.14161042E+04  d E =-.141610E+04
       N       E                     dE             d eps       ncg     rms          rms(c)
DAV:   1    -0.143954263263E+04   -0.23438E+02   -0.18931E+03   954   0.679E+01    0.220E+01
RMM:   2    -0.144085238773E+04   -0.13098E+01   -0.65336E+01   954   0.114E+01    0.896E+00
RMM:   3    -0.143983998540E+04    0.10124E+01   -0.46170E+00   954   0.255E+00    0.514E+00
RMM:   4    -0.143951075243E+04    0.32923E+00   -0.14389E+00   980   0.130E+00    0.179E+00
RMM:   5    -0.143950185744E+04    0.88950E-02   -0.93413E-02   996   0.353E-01    0.954E-01
RMM:   6    -0.143950273001E+04   -0.87257E-03   -0.21581E-02   986   0.168E-01    0.345E-01
RMM:   7    -0.143950453778E+04   -0.18078E-02   -0.39849E-03   973   0.701E-02    0.932E-02
RMM:   8    -0.143950578758E+04   -0.12498E-02   -0.11982E-03  1013   0.366E-02    0.536E-02
RMM:   9    -0.143950753270E+04   -0.17451E-02   -0.82683E-04   956   0.285E-02    0.480E-02
RMM:  10    -0.143950779966E+04   -0.26696E-03   -0.13267E-04  1041   0.101E-02    0.214E-02
RMM:  11    -0.143950836687E+04   -0.56721E-03   -0.20042E-04   957   0.120E-02    0.195E-02
RMM:  12    -0.143950847388E+04   -0.10701E-03   -0.48615E-05   874   0.479E-03    0.103E-02
RMM:  13    -0.143950849646E+04   -0.22577E-04   -0.13704E-05   811   0.284E-03    0.233E-03
RMM:  14    -0.143950849815E+04   -0.16991E-05   -0.15660E-06   620   0.110E-03    0.828E-04
RMM:  15    -0.143950849939E+04   -0.12338E-05   -0.62193E-07   600   0.816E-04    0.648E-04
RMM:  16    -0.143950849931E+04    0.79759E-07   -0.13385E-07   461   0.441E-04
   2 F= -.14395085E+04 E0= -.14395085E+04  d E =-.234043E+02
       N       E                     dE             d eps       ncg     rms          rms(c)
DAV:   1    -0.144001769317E+04   -0.50919E+00   -0.56244E+01  1012   0.118E+01    0.253E+00
RMM:   2    -0.144005304955E+04   -0.35356E-01   -0.16457E+00   955   0.174E+00    0.164E+00
RMM:   3    -0.144001100434E+04    0.42045E-01   -0.18243E-01   958   0.474E-01    0.581E-01
RMM:   4    -0.144000791003E+04    0.30943E-02   -0.24555E-02   990   0.172E-01    0.225E-01
RMM:   5    -0.144000731152E+04    0.59851E-03   -0.43950E-03   977   0.708E-02    0.994E-02
RMM:   6    -0.144000740829E+04   -0.96768E-04   -0.44609E-04   998   0.234E-02    0.565E-02
RMM:   7    -0.144000760600E+04   -0.19771E-03   -0.12828E-04   986   0.129E-02    0.139E-02
RMM:   8    -0.144000767525E+04   -0.69246E-04   -0.31746E-05   979   0.552E-03    0.821E-03
RMM:   9    -0.144000779549E+04   -0.12024E-03   -0.33379E-05   919   0.487E-03    0.626E-03
RMM:  10    -0.144000781459E+04   -0.19103E-04   -0.48350E-06   690   0.187E-03    0.230E-03
RMM:  11    -0.144000784170E+04   -0.27108E-04   -0.88680E-06   778   0.224E-03    0.180E-03
RMM:  12    -0.144000784300E+04   -0.12987E-05   -0.88020E-07   609   0.854E-04    0.730E-04
RMM:  13    -0.144000784341E+04   -0.41471E-06   -0.23482E-07   538   0.497E-04
   3 F= -.14400078E+04 E0= -.14400078E+04  d E =-.239036E+02
       N       E                     dE             d eps       ncg     rms          rms(c)
DAV:   1    -0.143958074399E+04    0.42710E+00   -0.19069E+03   970   0.691E+01    0.166E+01
RMM:   2    -0.144471321387E+04   -0.51325E+01   -0.71522E+01   954   0.122E+01    0.788E+00
RMM:   3    -0.144389477818E+04    0.81844E+00   -0.33081E+00   963   0.219E+00    0.541E+00
RMM:   4    -0.144359962161E+04    0.29516E+00   -0.26868E+00   970   0.171E+00    0.153E+00
RMM:   5    -0.144356010430E+04    0.39517E-01   -0.10010E-01   956   0.368E-01    0.905E-01
RMM:   6    -0.144356160972E+04   -0.15054E-02   -0.49984E-02   979   0.220E-01    0.249E-01
RMM:   7    -0.144356017300E+04    0.14367E-02   -0.15891E-02   969   0.117E-01    0.122E-01
RMM:   8    -0.144355994242E+04    0.23058E-03   -0.18033E-03   970   0.449E-02    0.290E-02
RMM:   9    -0.144356010233E+04   -0.15991E-03   -0.23382E-04  1058   0.147E-02    0.159E-02
RMM:  10    -0.144356027476E+04   -0.17243E-03   -0.45927E-05   972   0.715E-03    0.575E-03
RMM:  11    -0.144356036313E+04   -0.88368E-04   -0.19672E-05   861   0.376E-03    0.347E-03
RMM:  12    -0.144356043062E+04   -0.67496E-04   -0.24041E-05   848   0.367E-03    0.246E-03
RMM:  13    -0.144356043635E+04   -0.57310E-05   -0.34567E-06   668   0.147E-03    0.122E-03
RMM:  14    -0.144356043736E+04   -0.10049E-05   -0.77399E-07   602   0.833E-04    0.455E-04
RMM:  15    -0.144356043749E+04   -0.13317E-06   -0.20211E-07   524   0.510E-04
   4 F= -.14435604E+04 E0= -.14435604E+04  d E =-.355259E+01
       N       E                     dE             d eps       ncg     rms          rms(c)
DAV:   1    -0.144578745791E+04   -0.22270E+01   -0.29072E+02   954   0.274E+01    0.495E+00
RMM:   2    -0.144645291226E+04   -0.66545E+00   -0.98357E+00   960   0.436E+00    0.293E+00
RMM:   3    -0.144629500000E+04    0.15791E+00   -0.56196E-01   963   0.877E-01    0.178E+00
RMM:   4    -0.144626453461E+04    0.30465E-01   -0.28500E-01   978   0.569E-01    0.699E-01
RMM:   5    -0.144626177201E+04    0.27626E-02   -0.18008E-02   956   0.149E-01    0.224E-01
RMM:   6    -0.144626174002E+04    0.31989E-04   -0.24519E-03  1004   0.575E-02    0.713E-02
RMM:   7    -0.144626170607E+04    0.33945E-04   -0.12576E-03   973   0.339E-02    0.416E-02
RMM:   8    -0.144626164130E+04    0.64772E-04   -0.20495E-04   963   0.141E-02    0.954E-03
RMM:   9    -0.144626164343E+04   -0.21276E-05   -0.25311E-05   983   0.552E-03    0.578E-03
RMM:  10    -0.144626164399E+04   -0.56156E-06   -0.33528E-06   676   0.202E-03
   5 F= -.14462616E+04 E0= -.14462616E+04  d E =-.625380E+01
       N       E                     dE             d eps       ncg     rms          rms(c)
DAV:   1    -0.144795175061E+04   -0.16901E+01   -0.70303E+02   978   0.414E+01    0.951E+00
RMM:   2    -0.144944590526E+04   -0.14942E+01   -0.22767E+01   954   0.663E+00    0.556E+00
RMM:   3    -0.144913172960E+04    0.31418E+00   -0.12087E+00   968   0.131E+00    0.362E+00
RMM:   4    -0.144900932475E+04    0.12240E+00   -0.75227E-01   969   0.952E-01    0.844E-01
RMM:   5    -0.144900013124E+04    0.91935E-02   -0.32224E-02   966   0.209E-01    0.433E-01
RMM:   6    -0.144899974810E+04    0.38313E-03   -0.15406E-02   992   0.121E-01    0.176E-01
RMM:   7    -0.144899932914E+04    0.41896E-03   -0.45331E-03   967   0.625E-02    0.963E-02
RMM:   8    -0.144899908057E+04    0.24858E-03   -0.78907E-04   968   0.271E-02    0.215E-02
RMM:   9    -0.144899906337E+04    0.17190E-04   -0.92652E-05  1027   0.992E-03    0.143E-02
RMM:  10    -0.144899905764E+04    0.57345E-05   -0.14681E-05   958   0.408E-03    0.569E-03
RMM:  11    -0.144899906457E+04   -0.69304E-05   -0.80967E-06   850   0.275E-03    0.410E-03
RMM:  12    -0.144899907271E+04   -0.81399E-05   -0.49370E-06   792   0.213E-03    0.247E-03
RMM:  13    -0.144899907422E+04   -0.15067E-05   -0.12366E-06   603   0.116E-03    0.976E-04
RMM:  14    -0.144899907438E+04   -0.16072E-06   -0.33743E-07   596   0.651E-04
   6 F= -.14489991E+04 E0= -.14489991E+04  d E =-.273743E+01
       N       E                     dE             d eps       ncg     rms          rms(c)
DAV:   1    -0.144964989874E+04   -0.65082E+00   -0.74605E+01   970   0.137E+01    0.304E+00
RMM:   2    -0.144976484450E+04   -0.11495E+00   -0.21852E+00   954   0.203E+00    0.158E+00
RMM:   3    -0.144972867585E+04    0.36169E-01   -0.15916E-01   954   0.471E-01    0.699E-01
RMM:   4    -0.144972426155E+04    0.44143E-02   -0.40952E-02   990   0.232E-01    0.253E-01
RMM:   5    -0.144972371386E+04    0.54768E-03   -0.33153E-03   979   0.628E-02    0.114E-01
RMM:   6    -0.144972378341E+04   -0.69552E-04   -0.59404E-04  1025   0.278E-02    0.532E-02
RMM:   7    -0.144972383939E+04   -0.55976E-04   -0.21018E-04   973   0.139E-02    0.181E-02
RMM:   8    -0.144972385827E+04   -0.18882E-04   -0.40533E-05   964   0.602E-03    0.647E-03
RMM:   9    -0.144972388413E+04   -0.25862E-04   -0.96138E-06   866   0.305E-03    0.248E-03
RMM:  10    -0.144972389103E+04   -0.68975E-05   -0.19079E-06   626   0.139E-03    0.161E-03
RMM:  11    -0.144972389982E+04   -0.87859E-05   -0.27579E-06   655   0.138E-03    0.124E-03
RMM:  12    -0.144972390014E+04   -0.32289E-06   -0.33017E-07   596   0.624E-04
   7 F= -.14497239E+04 E0= -.14497239E+04  d E =-.346226E+01
       N       E                     dE             d eps       ncg     rms          rms(c)
DAV:   1    -0.145103066623E+04   -0.13068E+01   -0.25121E+02   954   0.250E+01    0.448E+00
RMM:   2    -0.145145754602E+04   -0.42688E+00   -0.65007E+00   954   0.349E+00    0.255E+00
RMM:   3    -0.145138731848E+04    0.70228E-01   -0.39338E-01   970   0.757E-01    0.152E+00
RMM:   4    -0.145136549252E+04    0.21826E-01   -0.18331E-01   976   0.478E-01    0.369E-01
RMM:   5    -0.145136342234E+04    0.20702E-02   -0.89778E-03   971   0.109E-01    0.182E-01
RMM:   6    -0.145136349967E+04   -0.77336E-04   -0.30818E-03  1001   0.572E-02    0.746E-02
RMM:   7    -0.145136338892E+04    0.11075E-03   -0.11158E-03   971   0.313E-02    0.371E-02
RMM:   8    -0.145136333927E+04    0.49648E-04   -0.11358E-04   966   0.113E-02    0.101E-02
RMM:   9    -0.145136334304E+04   -0.37686E-05   -0.50673E-05  1012   0.654E-03    0.842E-03
RMM:  10    -0.145136334392E+04   -0.87436E-06   -0.10974E-05   940   0.318E-03    0.280E-03
RMM:  11    -0.145136335141E+04   -0.74921E-05   -0.65082E-06   824   0.248E-03    0.322E-03
RMM:  12    -0.145136335378E+04   -0.23676E-05   -0.20939E-06   617   0.144E-03    0.910E-04
RMM:  13    -0.145136335429E+04   -0.51534E-06   -0.55331E-07   596   0.838E-04
   8 F= -.14513634E+04 E0= -.14513634E+04  d E =-.163945E+01
       N       E                     dE             d eps       ncg     rms          rms(c)
DAV:   1    -0.145138886496E+04   -0.25511E-01   -0.34226E+00   996   0.294E+00    0.512E-01
RMM:   2    -0.145139452274E+04   -0.56578E-02   -0.89043E-02   954   0.405E-01    0.292E-01
RMM:   3    -0.145139350327E+04    0.10195E-02   -0.56916E-03   961   0.908E-02    0.151E-01
RMM:   4    -0.145139331920E+04    0.18407E-03   -0.20275E-03   985   0.508E-02    0.412E-02
RMM:   5    -0.145139330184E+04    0.17361E-04   -0.12156E-04   983   0.123E-02    0.179E-02
RMM:   6    -0.145139330738E+04   -0.55405E-05   -0.26878E-05  1025   0.559E-03    0.740E-03
RMM:   7    -0.145139330860E+04   -0.12188E-05   -0.11770E-05   951   0.322E-03    0.396E-03
RMM:   8    -0.145139330916E+04   -0.56031E-06   -0.13691E-06   596   0.129E-03
   9 F= -.14513933E+04 E0= -.14513933E+04  d E =-.166941E+01
       N       E                     dE             d eps       ncg     rms          rms(c)
DAV:   1    -0.145256540941E+04   -0.11721E+01   -0.18351E+02   954   0.214E+01    0.372E+00
RMM:   2    -0.145286226731E+04   -0.29686E+00   -0.43581E+00   954   0.287E+00    0.201E+00
RMM:   3    -0.145282038348E+04    0.41884E-01   -0.27560E-01   974   0.636E-01    0.109E+00
RMM:   4    -0.145281237246E+04    0.80110E-02   -0.10584E-01   980   0.367E-01    0.286E-01
RMM:   5    -0.145281099901E+04    0.13734E-02   -0.66988E-03   968   0.905E-02    0.129E-01
RMM:   6    -0.145281119465E+04   -0.19563E-03   -0.15421E-03  1046   0.424E-02    0.557E-02
RMM:   7    -0.145281118599E+04    0.86522E-05   -0.75982E-04   972   0.251E-02    0.300E-02
RMM:   8    -0.145281117288E+04    0.13114E-04   -0.83378E-05   963   0.923E-03    0.743E-03
RMM:   9    -0.145281118523E+04   -0.12351E-04   -0.30610E-05  1023   0.514E-03    0.570E-03
RMM:  10    -0.145281118983E+04   -0.45961E-05   -0.45724E-06   728   0.219E-03    0.162E-03
RMM:  11    -0.145281119392E+04   -0.40900E-05   -0.25141E-06   626   0.162E-03    0.163E-03
RMM:  12    -0.145281119522E+04   -0.13031E-05   -0.68702E-07   600   0.861E-04    0.544E-04
RMM:  13    -0.145281119564E+04   -0.41842E-06   -0.26188E-07   584   0.545E-04
  10 F= -.14528112E+04 E0= -.14528112E+04  d E =-.141789E+01
       N       E                     dE             d eps       ncg     rms          rms(c)
DAV:   1    -0.145283782533E+04   -0.26630E-01   -0.62960E+00   996   0.396E+00    0.656E-01
RMM:   2    -0.145284767799E+04   -0.98527E-02   -0.14489E-01   954   0.522E-01    0.375E-01
RMM:   3    -0.145284621591E+04    0.14621E-02   -0.94830E-03   971   0.117E-01    0.199E-01
RMM:   4    -0.145284598994E+04    0.22597E-03   -0.35939E-03   980   0.674E-02    0.507E-02
RMM:   5    -0.145284593739E+04    0.52550E-04   -0.24526E-04   967   0.171E-02    0.215E-02
RMM:   6    -0.145284594533E+04   -0.79441E-05   -0.54279E-05  1056   0.788E-03    0.102E-02
RMM:   7    -0.145284594520E+04    0.13479E-06   -0.27327E-05   958   0.474E-03    0.571E-03
RMM:   8    -0.145284594454E+04    0.65315E-06   -0.26870E-06   629   0.178E-03
  11 F= -.14528459E+04 E0= -.14528459E+04  d E =-.145264E+01
       N       E                     dE             d eps       ncg     rms          rms(c)
DAV:   1    -0.145374918567E+04   -0.90324E+00   -0.14968E+02   954   0.192E+01    0.328E+00
RMM:   2    -0.145397896883E+04   -0.22978E+00   -0.34913E+00   954   0.257E+00    0.187E+00
RMM:   3    -0.145394689786E+04    0.32071E-01   -0.23310E-01   969   0.586E-01    0.992E-01
RMM:   4    -0.145394090140E+04    0.59965E-02   -0.74356E-02   980   0.314E-01    0.253E-01
RMM:   5    -0.145394019171E+04    0.70969E-03   -0.47978E-03   966   0.784E-02    0.104E-01
RMM:   6    -0.145394032435E+04   -0.13264E-03   -0.99182E-04  1042   0.349E-02    0.432E-02
RMM:   7    -0.145394035675E+04   -0.32395E-04   -0.32426E-04   975   0.172E-02    0.195E-02
RMM:   8    -0.145394038393E+04   -0.27182E-04   -0.32826E-05   981   0.628E-03    0.747E-03
RMM:   9    -0.145394041226E+04   -0.28330E-04   -0.22429E-05   959   0.426E-03    0.486E-03
RMM:  10    -0.145394043478E+04   -0.22521E-04   -0.68228E-06   815   0.242E-03    0.197E-03
RMM:  11    -0.145394044628E+04   -0.11501E-04   -0.37459E-06   677   0.171E-03    0.170E-03
RMM:  12    -0.145394044961E+04   -0.33282E-05   -0.12586E-06   613   0.965E-04    0.618E-04
RMM:  13    -0.145394045004E+04   -0.43771E-06   -0.38047E-07   591   0.600E-04
  12 F= -.14539405E+04 E0= -.14539405E+04  d E =-.109451E+01
       N       E                     dE             d eps       ncg     rms          rms(c)
DAV:   1    -0.145399317057E+04   -0.52721E-01   -0.16760E+01   964   0.642E+00    0.104E+00
RMM:   2    -0.145401753896E+04   -0.24368E-01   -0.37434E-01   954   0.841E-01    0.627E-01
RMM:   3    -0.145401372464E+04    0.38143E-02   -0.26376E-02   966   0.196E-01    0.307E-01
RMM:   4    -0.145401327628E+04    0.44836E-03   -0.75568E-03   980   0.100E-01    0.768E-02
RMM:   5    -0.145401318074E+04    0.95544E-04   -0.60118E-04   968   0.269E-02    0.295E-02
RMM:   6    -0.145401319368E+04   -0.12940E-04   -0.10124E-04  1055   0.113E-02    0.147E-02
RMM:   7    -0.145401319479E+04   -0.11076E-05   -0.32526E-05   974   0.546E-03    0.651E-03
RMM:   8    -0.145401319679E+04   -0.20067E-05   -0.28723E-06   634   0.206E-03    0.260E-03
RMM:   9    -0.145401319824E+04   -0.14531E-05   -0.21881E-06   605   0.155E-03    0.135E-03
RMM:  10    -0.145401319979E+04   -0.15501E-05   -0.69717E-07   597   0.976E-04    0.673E-04
RMM:  11    -0.145401320044E+04   -0.64903E-06   -0.27475E-07   593   0.565E-04
  13 F= -.14540132E+04 E0= -.14540132E+04  d E =-.116726E+01
       N       E                     dE             d eps       ncg     rms          rms(c)
DAV:   1    -0.145465236046E+04   -0.63916E+00   -0.13444E+02   954   0.182E+01    0.304E+00
RMM:   2    -0.145487729159E+04   -0.22493E+00   -0.30979E+00   954   0.244E+00    0.181E+00
RMM:   3    -0.145484956282E+04    0.27729E-01   -0.19419E-01   973   0.537E-01    0.993E-01
RMM:   4    -0.145484436119E+04    0.52016E-02   -0.79661E-02   980   0.317E-01    0.227E-01
RMM:   5    -0.145484302950E+04    0.13317E-02   -0.41794E-03   960   0.742E-02    0.117E-01
RMM:   6    -0.145484308844E+04   -0.58936E-04   -0.26615E-03   973   0.491E-02    0.567E-02
RMM:   7    -0.145484298597E+04    0.10247E-03   -0.24341E-04   972   0.165E-02    0.230E-02
RMM:   8    -0.145484299535E+04   -0.93788E-05   -0.18577E-04   982   0.129E-02    0.152E-02
RMM:   9    -0.145484298542E+04    0.99258E-05   -0.29732E-05   959   0.515E-03    0.420E-03
RMM:  10    -0.145484298673E+04   -0.13114E-05   -0.10047E-05   943   0.307E-03    0.345E-03
RMM:  11    -0.145484298626E+04    0.47316E-06   -0.15462E-06   612   0.129E-03
  14 F= -.14548430E+04 E0= -.14548430E+04  d E =-.829786E+00
       N       E                     dE             d eps       ncg     rms          rms(c)
DAV:   1    -0.145485063249E+04   -0.76458E-02   -0.21093E+00  1012   0.228E+00    0.370E-01
RMM:   2    -0.145485402653E+04   -0.33940E-02   -0.47479E-02   954   0.301E-01    0.225E-01
RMM:   3    -0.145485356580E+04    0.46073E-03   -0.31437E-03   969   0.680E-02    0.115E-01
RMM:   4    -0.145485350572E+04    0.60081E-04   -0.11255E-03   984   0.379E-02    0.285E-02
RMM:   5    -0.145485348432E+04    0.21405E-04   -0.67644E-05   967   0.924E-03    0.144E-02
RMM:   6    -0.145485348452E+04   -0.20077E-06   -0.40697E-05   974   0.608E-03    0.708E-03
RMM:   7    -0.145485348275E+04    0.17736E-05   -0.32031E-06   657   0.204E-03    0.303E-03
RMM:   8    -0.145485348285E+04   -0.10521E-06   -0.42150E-06   794   0.207E-03
  15 F= -.14548535E+04 E0= -.14548535E+04  d E =-.840282E+00
       N       E                     dE             d eps       ncg     rms          rms(c)
DAV:   1    -0.145538897517E+04   -0.53549E+00   -0.83225E+01   954   0.144E+01    0.249E+00
RMM:   2    -0.145548001334E+04   -0.91038E-01   -0.17248E+00   954   0.181E+00    0.147E+00
RMM:   3    -0.145545821458E+04    0.21799E-01   -0.15843E-01   964   0.462E-01    0.651E-01
RMM:   4    -0.145545689548E+04    0.13191E-02   -0.29300E-02   997   0.200E-01    0.215E-01
RMM:   5    -0.145545641963E+04    0.47585E-03   -0.28231E-03   971   0.586E-02    0.961E-02
RMM:   6    -0.145545640202E+04    0.17610E-04   -0.77693E-04  1007   0.290E-02    0.431E-02
RMM:   7    -0.145545637211E+04    0.29919E-04   -0.16155E-04   966   0.126E-02    0.173E-02
RMM:   8    -0.145545636960E+04    0.25034E-05   -0.19468E-05   980   0.503E-03    0.583E-03
RMM:   9    -0.145545637097E+04   -0.13716E-05   -0.95567E-06   925   0.287E-03    0.328E-03
RMM:  10    -0.145545637196E+04   -0.99058E-06   -0.18651E-06   598   0.147E-03
  16 F= -.14554564E+04 E0= -.14554564E+04  d E =-.602889E+00
       N       E                     dE             d eps       ncg     rms          rms(c)
DAV:   1    -0.145547535685E+04   -0.18986E-01   -0.44674E+00   996   0.333E+00    0.584E-01
RMM:   2    -0.145548002504E+04   -0.46682E-02   -0.91650E-02   954   0.417E-01    0.338E-01
RMM:   3    -0.145547888434E+04    0.11407E-02   -0.87251E-03   966   0.108E-01    0.146E-01
RMM:   4    -0.145547881342E+04    0.70927E-04   -0.14590E-03  1004   0.449E-02    0.513E-02
RMM:   5    -0.145547878692E+04    0.26494E-04   -0.14681E-04   968   0.133E-02    0.234E-02
RMM:   6    -0.145547878408E+04    0.28432E-05   -0.41434E-05  1005   0.663E-03    0.101E-02
RMM:   7    -0.145547878156E+04    0.25232E-05   -0.87262E-06   930   0.294E-03    0.398E-03
RMM:   8    -0.145547878116E+04    0.39685E-06   -0.84668E-07   596   0.120E-03
  17 F= -.14554788E+04 E0= -.14554788E+04  d E =-.625298E+00
       N       E                     dE             d eps       ncg     rms          rms(c)
DAV:   1    -0.145578607988E+04   -0.30730E+00   -0.82325E+01   962   0.142E+01    0.226E+00
RMM:   2    -0.145588032737E+04   -0.94247E-01   -0.16395E+00   954   0.176E+00    0.137E+00
RMM:   3    -0.145586154195E+04    0.18785E-01   -0.13448E-01   967   0.431E-01    0.655E-01
RMM:   4    -0.145585979505E+04    0.17469E-02   -0.31803E-02   986   0.208E-01    0.199E-01
RMM:   5    -0.145585942290E+04    0.37215E-03   -0.23534E-03   982   0.546E-02    0.107E-01
RMM:   6    -0.145585936525E+04    0.57651E-04   -0.10750E-03   975   0.330E-02    0.390E-02
RMM:   7    -0.145585934218E+04    0.23074E-04   -0.77200E-05   977   0.990E-03    0.176E-02
RMM:   8    -0.145585934273E+04   -0.55092E-06   -0.44591E-05   971   0.676E-03    0.717E-03
RMM:   9    -0.145585934214E+04    0.58809E-06   -0.12488E-05   948   0.328E-03    0.314E-03
RMM:  10    -0.145585934256E+04   -0.41834E-06   -0.10317E-06   597   0.123E-03
  18 F= -.14558593E+04 E0= -.14558593E+04  d E =-.380561E+00
       N       E                     dE             d eps       ncg     rms          rms(c)
DAV:   1    -0.145585956762E+04   -0.22548E-03   -0.56623E-02  1084   0.372E-01    0.591E-02
RMM:   2    -0.145585963109E+04   -0.63475E-04   -0.11325E-03   954   0.458E-02    0.359E-02
RMM:   3    -0.145585961896E+04    0.12130E-04   -0.96398E-05   962   0.115E-02    0.167E-02
RMM:   4    -0.145585961844E+04    0.52489E-06   -0.20471E-05   980   0.530E-03    0.572E-03
RMM:   5    -0.145585961835E+04    0.84183E-07   -0.13432E-06   599   0.147E-03
  19 F= -.14558596E+04 E0= -.14558596E+04  d E =-.380837E+00
       N       E                     dE             d eps       ncg     rms          rms(c)
DAV:   1    -0.145610326132E+04   -0.24364E+00   -0.60591E+01   954   0.122E+01    0.189E+00
RMM:   2    -0.145617422210E+04   -0.70961E-01   -0.11099E+00   954   0.144E+00    0.110E+00
RMM:   3    -0.145616446466E+04    0.97574E-02   -0.82745E-02   975   0.344E-01    0.582E-01
RMM:   4    -0.145616290292E+04    0.15617E-02   -0.24450E-02   986   0.176E-01    0.218E-01
RMM:   5    -0.145616225149E+04    0.65143E-03   -0.19088E-03   983   0.483E-02    0.913E-02
RMM:   6    -0.145616219628E+04    0.55206E-04   -0.10767E-03   972   0.315E-02    0.330E-02
RMM:   7    -0.145616217634E+04    0.19942E-04   -0.54710E-05   971   0.871E-03    0.139E-02
RMM:   8    -0.145616217797E+04   -0.16365E-05   -0.51696E-05   968   0.679E-03    0.748E-03
RMM:   9    -0.145616217590E+04    0.20708E-05   -0.85947E-06   926   0.274E-03    0.229E-03
RMM:  10    -0.145616217602E+04   -0.11573E-06   -0.95427E-07   597   0.123E-03
  20 F= -.14561622E+04 E0= -.14561622E+04  d E =-.302558E+00
       N       E                     dE             d eps       ncg     rms          rms(c)
DAV:   1    -0.145616592473E+04   -0.37488E-02   -0.13017E+00   996   0.179E+00    0.274E-01
RMM:   2    -0.145616743509E+04   -0.15104E-02   -0.23665E-02   954   0.210E-01    0.162E-01
RMM:   3    -0.145616723017E+04    0.20492E-03   -0.17910E-03   971   0.507E-02    0.849E-02
RMM:   4    -0.145616720219E+04    0.27982E-04   -0.52361E-04   986   0.257E-02    0.324E-02
RMM:   5    -0.145616718804E+04    0.14147E-04   -0.41633E-05   986   0.711E-03    0.135E-02
RMM:   6    -0.145616718704E+04    0.10021E-05   -0.22828E-05   957   0.460E-03    0.475E-03
RMM:   7    -0.145616718670E+04    0.34387E-06   -0.10094E-06   597   0.132E-03
  21 F= -.14561672E+04 E0= -.14561672E+04  d E =-.307568E+00
       N       E                     dE             d eps       ncg     rms          rms(c)
DAV:   1    -0.145634723847E+04   -0.18005E+00   -0.53334E+01   954   0.115E+01    0.175E+00
RMM:   2    -0.145640779580E+04   -0.60557E-01   -0.95108E-01   954   0.133E+00    0.103E+00
RMM:   3    -0.145640021806E+04    0.75777E-02   -0.73901E-02   979   0.325E-01    0.550E-01
RMM:   4    -0.145639889348E+04    0.13246E-02   -0.19165E-02   986   0.155E-01    0.249E-01
RMM:   5    -0.145639807564E+04    0.81784E-03   -0.19997E-03   973   0.484E-02    0.888E-02
RMM:   6    -0.145639804413E+04    0.31511E-04   -0.74408E-04   973   0.272E-02    0.298E-02
RMM:   7    -0.145639803610E+04    0.80292E-05   -0.39795E-05   979   0.765E-03    0.127E-02
RMM:   8    -0.145639803730E+04   -0.12036E-05   -0.33870E-05   965   0.567E-03    0.588E-03
RMM:   9    -0.145639803642E+04    0.88604E-06   -0.56155E-06   843   0.226E-03
  22 F= -.14563980E+04 E0= -.14563980E+04  d E =-.230850E+00
       N       E                     dE             d eps       ncg     rms          rms(c)
DAV:   1    -0.145639905198E+04   -0.10147E-02   -0.37232E-01  1044   0.957E-01    0.143E-01
RMM:   2    -0.145639947220E+04   -0.42022E-03   -0.65428E-03   954   0.110E-01    0.862E-02
RMM:   3    -0.145639942264E+04    0.49564E-04   -0.52043E-04   977   0.272E-02    0.452E-02
RMM:   4    -0.145639941641E+04    0.62283E-05   -0.13482E-04   987   0.130E-02    0.201E-02
RMM:   5    -0.145639941132E+04    0.50904E-05   -0.13275E-05   966   0.396E-03    0.717E-03
RMM:   6    -0.145639941147E+04   -0.14651E-06   -0.54451E-06   833   0.236E-03
  23 F= -.14563994E+04 E0= -.14563994E+04  d E =-.232225E+00
       N       E                     dE             d eps       ncg     rms          rms(c)
DAV:   1    -0.145653530368E+04   -0.13589E+00   -0.53251E+01   954   0.114E+01    0.167E+00
RMM:   2    -0.145659757709E+04   -0.62273E-01   -0.95185E-01   954   0.134E+00    0.101E+00
RMM:   3    -0.145658896108E+04    0.86160E-02   -0.73029E-02   978   0.320E-01    0.551E-01
RMM:   4    -0.145658753461E+04    0.14265E-02   -0.20364E-02   987   0.158E-01    0.269E-01
RMM:   5    -0.145658646012E+04    0.10745E-02   -0.23336E-03   973   0.514E-02    0.871E-02
RMM:   6    -0.145658640305E+04    0.57073E-04   -0.82968E-04   968   0.282E-02    0.301E-02
RMM:   7    -0.145658639415E+04    0.89001E-05   -0.40960E-05   980   0.792E-03    0.134E-02
RMM:   8    -0.145658639392E+04    0.22368E-06   -0.39852E-05   960   0.604E-03    0.618E-03
RMM:   9    -0.145658639292E+04    0.99820E-06   -0.62083E-06   853   0.234E-03
  24 F= -.14565864E+04 E0= -.14565864E+04  d E =-.186981E+00
       N       E                     dE             d eps       ncg     rms          rms(c)
DAV:   1    -0.145658690785E+04   -0.51392E-03   -0.23596E-01  1044   0.758E-01    0.111E-01
RMM:   2    -0.145658717844E+04   -0.27059E-03   -0.41779E-03   954   0.885E-02    0.674E-02
RMM:   3    -0.145658714139E+04    0.37045E-04   -0.33240E-04   978   0.215E-02    0.365E-02
RMM:   4    -0.145658713508E+04    0.63149E-05   -0.87198E-05   988   0.103E-02    0.181E-02
RMM:   5    -0.145658713032E+04    0.47629E-05   -0.10065E-05   933   0.340E-03    0.592E-03
RMM:   6    -0.145658713007E+04    0.24211E-06   -0.30095E-06   640   0.188E-03
  25 F= -.14565871E+04 E0= -.14565871E+04  d E =-.187719E+00
       N       E                     dE             d eps       ncg     rms          rms(c)
DAV:   1    -0.145672778171E+04   -0.14065E+00   -0.43694E+01   954   0.103E+01    0.159E+00
RMM:   2    -0.145677446373E+04   -0.46682E-01   -0.76850E-01   954   0.120E+00    0.957E-01
RMM:   3    -0.145676685524E+04    0.76085E-02   -0.65156E-02   977   0.298E-01    0.451E-01
RMM:   4    -0.145676638845E+04    0.46678E-03   -0.13583E-02   991   0.134E-01    0.191E-01
RMM:   5    -0.145676587954E+04    0.50891E-03   -0.14947E-03   983   0.401E-02    0.937E-02
RMM:   6    -0.145676579323E+04    0.86312E-04   -0.67767E-04   967   0.253E-02    0.311E-02
RMM:   7    -0.145676578607E+04    0.71646E-05   -0.33709E-05   988   0.719E-03    0.152E-02
RMM:   8    -0.145676578365E+04    0.24149E-05   -0.38452E-05   957   0.588E-03    0.641E-03
RMM:   9    -0.145676578227E+04    0.13858E-05   -0.27015E-06   610   0.181E-03    0.254E-03
RMM:  10    -0.145676578265E+04   -0.38870E-06   -0.32658E-06   689   0.184E-03
  26 F= -.14567658E+04 E0= -.14567658E+04  d E =-.178653E+00
       N       E                     dE             d eps       ncg     rms          rms(c)
DAV:   1    -0.145677027252E+04   -0.44903E-02   -0.22817E+00   980   0.236E+00    0.366E-01
RMM:   2    -0.145677263690E+04   -0.23644E-02   -0.39879E-02   954   0.272E-01    0.218E-01
RMM:   3    -0.145677224508E+04    0.39182E-03   -0.34392E-03   979   0.683E-02    0.103E-01
RMM:   4    -0.145677221192E+04    0.33167E-04   -0.66749E-04   991   0.300E-02    0.414E-02
RMM:   5    -0.145677219149E+04    0.20426E-04   -0.74914E-05   982   0.900E-03    0.223E-02
RMM:   6    -0.145677218597E+04    0.55245E-05   -0.29268E-05   963   0.535E-03    0.736E-03
RMM:   7    -0.145677218520E+04    0.76742E-06   -0.13482E-06   598   0.162E-03
  27 F= -.14567722E+04 E0= -.14567722E+04  d E =-.185055E+00
       N       E                     dE             d eps       ncg     rms          rms(c)
DAV:   1    -0.145688169032E+04   -0.10950E+00   -0.38165E+01   954   0.962E+00    0.146E+00
RMM:   2    -0.145692719453E+04   -0.45504E-01   -0.70491E-01   954   0.115E+00    0.918E-01
RMM:   3    -0.145692262205E+04    0.45725E-02   -0.55924E-02   984   0.273E-01    0.589E-01
RMM:   4    -0.145691954747E+04    0.30746E-02   -0.17035E-02   984   0.140E-01    0.274E-01
RMM:   5    -0.145691876156E+04    0.78591E-03   -0.19163E-03   964   0.489E-02    0.818E-02
RMM:   6    -0.145691870789E+04    0.53677E-04   -0.50508E-04   971   0.227E-02    0.317E-02
RMM:   7    -0.145691870621E+04    0.16801E-05   -0.48704E-05  1014   0.772E-03    0.147E-02
RMM:   8    -0.145691870298E+04    0.32290E-05   -0.23911E-05   954   0.480E-03    0.487E-03
RMM:   9    -0.145691870278E+04    0.20180E-06   -0.11665E-06   598   0.138E-03
  28 F= -.14569187E+04 E0= -.14569187E+04  d E =-.146518E+00
       N       E                     dE             d eps       ncg     rms          rms(c)
DAV:   1    -0.145692065897E+04   -0.19560E-02   -0.96151E-01  1012   0.153E+00    0.233E-01
RMM:   2    -0.145692178666E+04   -0.11277E-02   -0.17763E-02   954   0.182E-01    0.146E-01
RMM:   3    -0.145692167244E+04    0.11422E-03   -0.14315E-03   984   0.436E-02    0.944E-02
RMM:   4    -0.145692159157E+04    0.80867E-04   -0.42971E-04   985   0.222E-02    0.442E-02
RMM:   5    -0.145692157075E+04    0.20827E-04   -0.48547E-05   964   0.779E-03    0.135E-02
RMM:   6    -0.145692156918E+04    0.15628E-05   -0.12315E-05   954   0.357E-03    0.523E-03
RMM:   7    -0.145692156884E+04    0.34116E-06   -0.97636E-07   598   0.127E-03
  29 F= -.14569216E+04 E0= -.14569216E+04  d E =-.149384E+00
       N       E                     dE             d eps       ncg     rms          rms(c)
DAV:   1    -0.145701717864E+04   -0.95609E-01   -0.31508E+01   954   0.874E+00    0.133E+00
RMM:   2    -0.145705347799E+04   -0.36299E-01   -0.55883E-01   954   0.103E+00    0.818E-01
RMM:   3    -0.145704937595E+04    0.41020E-02   -0.44730E-02   987   0.248E-01    0.474E-01
RMM:   4    -0.145704816761E+04    0.12083E-02   -0.12873E-02   986   0.121E-01    0.261E-01
RMM:   5    -0.145704718180E+04    0.98581E-03   -0.16716E-03   965   0.433E-02    0.711E-02
RMM:   6    -0.145704713319E+04    0.48608E-04   -0.40601E-04   973   0.202E-02    0.312E-02
RMM:   7    -0.145704713212E+04    0.10701E-05   -0.51625E-05  1015   0.772E-03    0.133E-02
RMM:   8    -0.145704712969E+04    0.24304E-05   -0.17340E-05   954   0.413E-03    0.458E-03
RMM:   9    -0.145704712961E+04    0.79868E-07   -0.12528E-06   597   0.147E-03
  30 F= -.14570471E+04 E0= -.14570471E+04  d E =-.125561E+00
       N       E                     dE             d eps       ncg     rms          rms(c)
DAV:   1    -0.145704993580E+04   -0.28061E-02   -0.14974E+00   980   0.191E+00    0.290E-01
RMM:   2    -0.145705164028E+04   -0.17045E-02   -0.26456E-02   954   0.223E-01    0.178E-01
RMM:   3    -0.145705145098E+04    0.18930E-03   -0.21479E-03   986   0.542E-02    0.104E-01
RMM:   4    -0.145705139014E+04    0.60848E-04   -0.61208E-04   986   0.263E-02    0.571E-02
RMM:   5    -0.145705134352E+04    0.46611E-04   -0.78982E-05   963   0.944E-03    0.157E-02
RMM:   6    -0.145705134114E+04    0.23820E-05   -0.18982E-05   958   0.439E-03    0.703E-03
RMM:   7    -0.145705134087E+04    0.27056E-06   -0.20332E-06   606   0.175E-03
  31 F= -.14570513E+04 E0= -.14570513E+04  d E =-.129772E+00
       N       E                     dE             d eps       ncg     rms          rms(c)
DAV:   1    -0.145713266942E+04   -0.81328E-01   -0.23996E+01   954   0.765E+00    0.118E+00
RMM:   2    -0.145715678442E+04   -0.24115E-01   -0.40379E-01   954   0.872E-01    0.706E-01
RMM:   3    -0.145715281707E+04    0.39673E-02   -0.32680E-02   979   0.213E-01    0.352E-01
RMM:   4    -0.145715260592E+04    0.21115E-03   -0.81586E-03   985   0.101E-01    0.190E-01
RMM:   5    -0.145715201936E+04    0.58656E-03   -0.10844E-03   976   0.331E-02    0.681E-02
RMM:   6    -0.145715196519E+04    0.54169E-04   -0.26401E-04   972   0.165E-02    0.316E-02
RMM:   7    -0.145715196374E+04    0.14514E-05   -0.58935E-05   992   0.768E-03    0.120E-02
RMM:   8    -0.145715196136E+04    0.23862E-05   -0.14848E-05   954   0.382E-03    0.417E-03
RMM:   9    -0.145715196122E+04    0.13513E-06   -0.11909E-06   597   0.142E-03
  32 F= -.14571520E+04 E0= -.14571520E+04  d E =-.100620E+00
       N       E                     dE             d eps       ncg     rms          rms(c)
DAV:   1    -0.145715441851E+04   -0.24572E-02   -0.11180E+00   996   0.165E+00    0.253E-01
RMM:   2    -0.145715554184E+04   -0.11233E-02   -0.18862E-02   954   0.188E-01    0.153E-01
RMM:   3    -0.145715535918E+04    0.18266E-03   -0.15352E-03   980   0.460E-02    0.773E-02
RMM:   4    -0.145715534921E+04    0.99714E-05   -0.38371E-04   985   0.218E-02    0.422E-02
RMM:   5    -0.145715532051E+04    0.28703E-04   -0.52704E-05   972   0.727E-03    0.150E-02
RMM:   6    -0.145715531808E+04    0.24225E-05   -0.12228E-05   955   0.357E-03    0.696E-03
RMM:   7    -0.145715531796E+04    0.12154E-06   -0.23025E-06   610   0.171E-03
  33 F= -.14571553E+04 E0= -.14571553E+04  d E =-.103977E+00
       N       E                     dE             d eps       ncg     rms          rms(c)
DAV:   1    -0.145722324878E+04   -0.67931E-01   -0.24150E+01   954   0.767E+00    0.118E+00
RMM:   2    -0.145724839146E+04   -0.25143E-01   -0.41670E-01   954   0.889E-01    0.716E-01
RMM:   3    -0.145724418469E+04    0.42068E-02   -0.34293E-02   984   0.217E-01    0.368E-01
RMM:   4    -0.145724389067E+04    0.29402E-03   -0.87336E-03   985   0.102E-01    0.216E-01
RMM:   5    -0.145724312999E+04    0.76068E-03   -0.12582E-03   971   0.355E-02    0.710E-02
RMM:   6    -0.145724307292E+04    0.57065E-04   -0.28392E-04   973   0.171E-02    0.344E-02
RMM:   7    -0.145724306894E+04    0.39809E-05   -0.78882E-05   989   0.884E-03    0.134E-02
RMM:   8    -0.145724306542E+04    0.35268E-05   -0.13819E-05   952   0.378E-03    0.471E-03
RMM:   9    -0.145724306531E+04    0.11016E-06   -0.24490E-06   617   0.185E-03
  34 F= -.14572431E+04 E0= -.14572431E+04  d E =-.877473E-01
       N       E                     dE             d eps       ncg     rms          rms(c)
DAV:   1    -0.145724413075E+04   -0.10653E-02   -0.54530E-01  1012   0.115E+00    0.177E-01
RMM:   2    -0.145724469992E+04   -0.56917E-03   -0.94538E-03   954   0.134E-01    0.108E-01
RMM:   3    -0.145724460545E+04    0.94473E-04   -0.78233E-04   985   0.327E-02    0.556E-02
RMM:   4    -0.145724459820E+04    0.72541E-05   -0.19578E-04   985   0.153E-02    0.325E-02
RMM:   5    -0.145724458088E+04    0.17318E-04   -0.28517E-05   964   0.534E-03    0.108E-02
RMM:   6    -0.145724457951E+04    0.13705E-05   -0.61006E-06   853   0.256E-03    0.518E-03
RMM:   7    -0.145724457926E+04    0.24813E-06   -0.15389E-06   597   0.146E-03
  35 F= -.14572446E+04 E0= -.14572446E+04  d E =-.892613E-01
       N       E                     dE             d eps       ncg     rms          rms(c)
DAV:   1    -0.145731201473E+04   -0.67435E-01   -0.22368E+01   954   0.740E+00    0.118E+00
RMM:   2    -0.145733455147E+04   -0.22537E-01   -0.38157E-01   954   0.848E-01    0.713E-01
RMM:   3    -0.145733089150E+04    0.36600E-02   -0.32167E-02   982   0.209E-01    0.351E-01
RMM:   4    -0.145733059472E+04    0.29678E-03   -0.75278E-03   988   0.969E-02    0.178E-01
RMM:   5    -0.145733010380E+04    0.49091E-03   -0.10064E-03   970   0.320E-02    0.739E-02
RMM:   6    -0.145733003089E+04    0.72911E-04   -0.24626E-04   972   0.157E-02    0.353E-02
RMM:   7    -0.145733002505E+04    0.58467E-05   -0.80598E-05   984   0.870E-03    0.132E-02
RMM:   8    -0.145733002188E+04    0.31650E-05   -0.11201E-05   951   0.349E-03    0.514E-03
RMM:   9    -0.145733002181E+04    0.68409E-07   -0.24141E-06   616   0.176E-03
  36 F= -.14573300E+04 E0= -.14573300E+04  d E =-.854426E-01
       N       E                     dE             d eps       ncg     rms          rms(c)
DAV:   1    -0.145733219548E+04   -0.21736E-02   -0.11982E+00   996   0.171E+00    0.275E-01
RMM:   2    -0.145733339833E+04   -0.12028E-02   -0.20510E-02   954   0.196E-01    0.165E-01
RMM:   3    -0.145733320172E+04    0.19661E-03   -0.17312E-03   983   0.484E-02    0.816E-02
RMM:   4    -0.145733318226E+04    0.19464E-04   -0.39880E-04   988   0.223E-02    0.408E-02
RMM:   5    -0.145733315743E+04    0.24827E-04   -0.53497E-05   971   0.740E-03    0.177E-02
RMM:   6    -0.145733315328E+04    0.41523E-05   -0.12893E-05   952   0.361E-03    0.848E-03
RMM:   7    -0.145733315261E+04    0.66712E-06   -0.39496E-06   755   0.204E-03
  37 F= -.14573332E+04 E0= -.14573332E+04  d E =-.885734E-01
       N       E                     dE             d eps       ncg     rms          rms(c)
DAV:   1    -0.145738628384E+04   -0.53131E-01   -0.23875E+01   954   0.762E+00    0.124E+00
RMM:   2    -0.145741079238E+04   -0.24509E-01   -0.41775E-01   954   0.888E-01    0.753E-01
RMM:   3    -0.145740705414E+04    0.37382E-02   -0.35641E-02   982   0.218E-01    0.426E-01
RMM:   4    -0.145740598627E+04    0.10679E-02   -0.97011E-03   986   0.105E-01    0.233E-01
RMM:   5    -0.145740521073E+04    0.77555E-03   -0.13583E-03   967   0.379E-02    0.756E-02
RMM:   6    -0.145740513792E+04    0.72807E-04   -0.29813E-04   968   0.173E-02    0.372E-02
RMM:   7    -0.145740513082E+04    0.70956E-05   -0.86778E-05   981   0.918E-03    0.139E-02
RMM:   8    -0.145740512804E+04    0.27866E-05   -0.12015E-05   954   0.368E-03    0.508E-03
RMM:   9    -0.145740512801E+04    0.30261E-07   -0.21386E-06   604   0.171E-03
  38 F= -.14574051E+04 E0= -.14574051E+04  d E =-.719754E-01
       N       E                     dE             d eps       ncg     rms          rms(c)
DAV:   1    -0.145740527207E+04   -0.14403E-03   -0.71744E-02  1060   0.418E-01    0.683E-02
RMM:   2    -0.145740534650E+04   -0.74433E-04   -0.12705E-03   954   0.489E-02    0.413E-02
RMM:   3    -0.145740533531E+04    0.11188E-04   -0.10818E-04   984   0.120E-02    0.234E-02
RMM:   4    -0.145740533228E+04    0.30350E-05   -0.28962E-05   982   0.572E-03    0.130E-02
RMM:   5    -0.145740532987E+04    0.24121E-05   -0.38998E-06   695   0.212E-03    0.418E-03
RMM:   6    -0.145740532967E+04    0.19550E-06   -0.89025E-07   598   0.117E-03
  39 F= -.14574053E+04 E0= -.14574053E+04  d E =-.721771E-01
       N       E                     dE             d eps       ncg     rms          rms(c)
DAV:   1    -0.145745779842E+04   -0.52469E-01   -0.23419E+01   954   0.753E+00    0.123E+00
RMM:   2    -0.145747939298E+04   -0.21595E-01   -0.37862E-01   954   0.851E-01    0.740E-01
RMM:   3    -0.145747488057E+04    0.45124E-02   -0.32878E-02   985   0.212E-01    0.350E-01
RMM:   4    -0.145747452601E+04    0.35457E-03   -0.77461E-03   988   0.976E-02    0.183E-01
RMM:   5    -0.145747398562E+04    0.54038E-03   -0.96067E-04   967   0.314E-02    0.711E-02
RMM:   6    -0.145747392375E+04    0.61874E-04   -0.24670E-04   973   0.157E-02    0.377E-02
RMM:   7    -0.145747391557E+04    0.81741E-05   -0.90684E-05   967   0.926E-03    0.133E-02
RMM:   8    -0.145747391261E+04    0.29675E-05   -0.12144E-05   954   0.365E-03    0.488E-03
RMM:   9    -0.145747391259E+04    0.16516E-07   -0.22590E-06   601   0.176E-03
  40 F= -.14574739E+04 E0= -.14574739E+04  d E =-.685829E-01
       N       E                     dE             d eps       ncg     rms          rms(c)
DAV:   1    -0.145747410756E+04   -0.19495E-03   -0.10135E-01  1044   0.496E-01    0.812E-02
RMM:   2    -0.145747420257E+04   -0.95010E-04   -0.16557E-03   954   0.562E-02    0.487E-02
RMM:   3    -0.145747418337E+04    0.19198E-04   -0.14318E-04   986   0.139E-02    0.233E-02
RMM:   4    -0.145747418180E+04    0.15709E-05   -0.33910E-05   987   0.644E-03    0.122E-02
RMM:   5    -0.145747417937E+04    0.24338E-05   -0.38483E-06   698   0.209E-03    0.469E-03
RMM:   6    -0.145747417909E+04    0.27582E-06   -0.10268E-06   599   0.123E-03
  41 F= -.14574742E+04 E0= -.14574742E+04  d E =-.688494E-01
       N       E                     dE             d eps       ncg     rms          rms(c)
DAV:   1    -0.145752738047E+04   -0.53201E-01   -0.21194E+01   954   0.717E+00    0.121E+00
RMM:   2    -0.145754572630E+04   -0.18346E-01   -0.33753E-01   954   0.797E-01    0.735E-01
RMM:   3    -0.145754352641E+04    0.21999E-02   -0.31899E-02   984   0.201E-01    0.485E-01
RMM:   4    -0.145754082064E+04    0.27058E-02   -0.95651E-03   983   0.102E-01    0.200E-01
RMM:   5    -0.145754043184E+04    0.38880E-03   -0.98329E-04   965   0.352E-02    0.623E-02
RMM:   6    -0.145754038351E+04    0.48335E-04   -0.19976E-04   976   0.144E-02    0.327E-02
RMM:   7    -0.145754037608E+04    0.74262E-05   -0.61756E-05   968   0.775E-03    0.119E-02
RMM:   8    -0.145754037489E+04    0.11955E-05   -0.86422E-06   946   0.319E-03    0.400E-03
RMM:   9    -0.145754037489E+04   -0.50131E-08   -0.13532E-06   599   0.139E-03
  42 F= -.14575404E+04 E0= -.14575404E+04  d E =-.661958E-01
       N       E                     dE             d eps       ncg     rms          rms(c)
DAV:   1    -0.145754119201E+04   -0.81712E-03   -0.46371E-01  1012   0.106E+00    0.179E-01
RMM:   2    -0.145754159485E+04   -0.40284E-03   -0.73944E-03   954   0.118E-01    0.109E-01
RMM:   3    -0.145754154715E+04    0.47703E-04   -0.69910E-04   983   0.298E-02    0.724E-02
RMM:   4    -0.145754148755E+04    0.59594E-04   -0.21132E-04   982   0.152E-02    0.298E-02
RMM:   5    -0.145754147884E+04    0.87118E-05   -0.22131E-05   962   0.527E-03    0.933E-03
RMM:   6    -0.145754147776E+04    0.10849E-05   -0.40516E-06   724   0.215E-03    0.483E-03
RMM:   7    -0.145754147766E+04    0.97709E-07   -0.14593E-06   596   0.142E-03
  43 F= -.14575415E+04 E0= -.14575415E+04  d E =-.672986E-01
       N       E                     dE             d eps       ncg     rms          rms(c)
DAV:   1    -0.145758375587E+04   -0.42278E-01   -0.20601E+01   954   0.705E+00    0.118E+00
RMM:   2    -0.145760172010E+04   -0.17964E-01   -0.33388E-01   954   0.800E-01    0.709E-01
RMM:   3    -0.145759753538E+04    0.41847E-02   -0.29882E-02   979   0.202E-01    0.300E-01
RMM:   4    -0.145759733425E+04    0.20113E-03   -0.58188E-03   991   0.865E-02    0.134E-01
RMM:   5    -0.145759706269E+04    0.27156E-03   -0.64729E-04   977   0.266E-02    0.613E-02
RMM:   6    -0.145759703379E+04    0.28898E-04   -0.19941E-04   977   0.138E-02    0.370E-02
RMM:   7    -0.145759702050E+04    0.13286E-04   -0.59504E-05   967   0.748E-03    0.126E-02
RMM:   8    -0.145759701889E+04    0.16166E-05   -0.15761E-05   957   0.390E-03    0.459E-03
RMM:   9    -0.145759701877E+04    0.11491E-06   -0.12060E-06   598   0.142E-03
  44 F= -.14575970E+04 E0= -.14575970E+04  d E =-.555411E-01
       N       E                     dE             d eps       ncg     rms          rms(c)
DAV:   1    -0.145759703893E+04   -0.20041E-04   -0.10350E-02  1108   0.158E-01    0.266E-02
RMM:   2    -0.145759704811E+04   -0.91776E-05   -0.17058E-04   954   0.181E-02    0.160E-02
RMM:   3    -0.145759704609E+04    0.20176E-05   -0.15668E-05   980   0.461E-03    0.685E-03
RMM:   4    -0.145759704600E+04    0.86526E-07   -0.25854E-06   618   0.198E-03
  45 F= -.14575970E+04 E0= -.14575970E+04  d E =-.555683E-01
       N       E                     dE             d eps       ncg     rms          rms(c)
DAV:   1    -0.145763410163E+04   -0.37056E-01   -0.15028E+01   954   0.603E+00    0.102E+00
RMM:   2    -0.145764660672E+04   -0.12505E-01   -0.24213E-01   954   0.680E-01    0.608E-01
RMM:   3    -0.145764348544E+04    0.31213E-02   -0.21662E-02   974   0.171E-01    0.280E-01
RMM:   4    -0.145764323062E+04    0.25482E-03   -0.49392E-03   986   0.778E-02    0.142E-01
RMM:   5    -0.145764291740E+04    0.31322E-03   -0.61958E-04   971   0.253E-02    0.591E-02
RMM:   6    -0.145764287908E+04    0.38323E-04   -0.15960E-04   981   0.125E-02    0.325E-02
RMM:   7    -0.145764287027E+04    0.88046E-05   -0.57220E-05   962   0.729E-03    0.106E-02
RMM:   8    -0.145764286893E+04    0.13492E-05   -0.93508E-06   944   0.314E-03    0.369E-03
RMM:   9    -0.145764286887E+04    0.51245E-07   -0.95697E-07   596   0.125E-03
  46 F= -.14576429E+04 E0= -.14576429E+04  d E =-.458229E-01
       N       E                     dE             d eps       ncg     rms          rms(c)
DAV:   1    -0.145764294042E+04   -0.71492E-04   -0.31203E-02  1076   0.275E-01    0.466E-02
RMM:   2    -0.145764296657E+04   -0.26150E-04   -0.50709E-04   954   0.311E-02    0.278E-02
RMM:   3    -0.145764296012E+04    0.64441E-05   -0.45749E-05   978   0.784E-03    0.130E-02
RMM:   4    -0.145764295954E+04    0.58668E-06   -0.10271E-05   957   0.356E-03    0.654E-03
RMM:   5    -0.145764295887E+04    0.66281E-06   -0.11769E-06   599   0.124E-03
  47 F= -.14576430E+04 E0= -.14576430E+04  d E =-.459129E-01
       N       E                     dE             d eps       ncg     rms          rms(c)
DAV:   1    -0.145767241720E+04   -0.29458E-01   -0.11207E+01   954   0.520E+00    0.878E-01
RMM:   2    -0.145768238707E+04   -0.99699E-02   -0.18723E-01   954   0.597E-01    0.528E-01
RMM:   3    -0.145768011998E+04    0.22671E-02   -0.16235E-02   978   0.148E-01    0.272E-01
RMM:   4    -0.145767969607E+04    0.42391E-03   -0.43477E-03   984   0.707E-02    0.139E-01
RMM:   5    -0.145767941548E+04    0.28059E-03   -0.57744E-04   972   0.243E-02    0.562E-02
RMM:   6    -0.145767936942E+04    0.46062E-04   -0.11645E-04   975   0.107E-02    0.281E-02
RMM:   7    -0.145767936363E+04    0.57867E-05   -0.52419E-05   961   0.691E-03    0.895E-03
RMM:   8    -0.145767936252E+04    0.11172E-05   -0.56238E-06   847   0.260E-03    0.340E-03
RMM:   9    -0.145767936249E+04    0.24113E-07   -0.10936E-06   597   0.128E-03
  48 F= -.14576794E+04 E0= -.14576794E+04  d E =-.364036E-01
       N       E                     dE             d eps       ncg     rms          rms(c)
DAV:   1    -0.145767949112E+04   -0.12861E-03   -0.55449E-02  1044   0.365E-01    0.617E-02
RMM:   2    -0.145767954034E+04   -0.49218E-04   -0.93088E-04   954   0.421E-02    0.371E-02
RMM:   3    -0.145767952889E+04    0.11448E-04   -0.81142E-05   980   0.104E-02    0.190E-02
RMM:   4    -0.145767952663E+04    0.22605E-05   -0.21379E-05   974   0.498E-03    0.961E-03
RMM:   5    -0.145767952526E+04    0.13738E-05   -0.24606E-06   621   0.173E-03    0.383E-03
RMM:   6    -0.145767952506E+04    0.19460E-06   -0.63134E-07   596   0.101E-03
  49 F= -.14576795E+04 E0= -.14576795E+04  d E =-.365662E-01
       N       E                     dE             d eps       ncg     rms          rms(c)
DAV:   1    -0.145770631975E+04   -0.26794E-01   -0.94364E+00   954   0.477E+00    0.819E-01
RMM:   2    -0.145771359341E+04   -0.72737E-02   -0.14929E-01   954   0.536E-01    0.489E-01
RMM:   3    -0.145771138063E+04    0.22128E-02   -0.13446E-02   979   0.133E-01    0.227E-01
RMM:   4    -0.145771108328E+04    0.29735E-03   -0.31356E-03   986   0.612E-02    0.967E-02
RMM:   5    -0.145771092816E+04    0.15512E-03   -0.29548E-04   975   0.184E-02    0.377E-02
RMM:   6    -0.145771092456E+04    0.35953E-05   -0.12370E-04   973   0.106E-02    0.275E-02
RMM:   7    -0.145771091402E+04    0.10539E-04   -0.26423E-05   974   0.493E-03    0.971E-03
RMM:   8    -0.145771091283E+04    0.11938E-05   -0.89604E-06   914   0.289E-03    0.413E-03
RMM:   9    -0.145771091276E+04    0.62231E-07   -0.10833E-06   598   0.129E-03
  50 F= -.14577109E+04 E0= -.14577109E+04  d E =-.313877E-01
       N       E                     dE             d eps       ncg     rms          rms(c)
DAV:   1    -0.145771103740E+04   -0.12457E-03   -0.49222E-02  1052   0.344E-01    0.591E-02
RMM:   2    -0.145771107593E+04   -0.38536E-04   -0.78830E-04   954   0.389E-02    0.354E-02
RMM:   3    -0.145771106426E+04    0.11671E-04   -0.70519E-05   979   0.966E-03    0.165E-02
RMM:   4    -0.145771106261E+04    0.16489E-05   -0.16564E-05   967   0.446E-03    0.696E-03
RMM:   5    -0.145771106179E+04    0.81807E-06   -0.13332E-06   599   0.138E-03
  51 F= -.14577111E+04 E0= -.14577111E+04  d E =-.315367E-01
       N       E                     dE             d eps       ncg     rms          rms(c)
DAV:   1    -0.145773654816E+04   -0.25486E-01   -0.89523E+00   954   0.464E+00    0.815E-01
RMM:   2    -0.145774299259E+04   -0.64444E-02   -0.13831E-01   954   0.514E-01    0.490E-01
RMM:   3    -0.145774141306E+04    0.15795E-02   -0.12995E-02   981   0.129E-01    0.281E-01
RMM:   4    -0.145774067180E+04    0.74126E-03   -0.38423E-03   983   0.627E-02    0.138E-01
RMM:   5    -0.145774040487E+04    0.26692E-03   -0.39439E-04   964   0.216E-02    0.406E-02
RMM:   6    -0.145774038760E+04    0.17273E-04   -0.90591E-05   982   0.946E-03    0.228E-02
RMM:   7    -0.145774038358E+04    0.40236E-05   -0.28946E-05   959   0.528E-03    0.812E-03
RMM:   8    -0.145774038312E+04    0.46098E-06   -0.33793E-06   656   0.211E-03
  52 F= -.14577404E+04 E0= -.14577404E+04  d E =-.293213E-01
       N       E                     dE             d eps       ncg     rms          rms(c)
DAV:   1    -0.145774049838E+04   -0.11480E-03   -0.46668E-02  1076   0.335E-01    0.584E-02
RMM:   2    -0.145774053305E+04   -0.34675E-04   -0.72289E-04   954   0.371E-02    0.352E-02
RMM:   3    -0.145774052493E+04    0.81223E-05   -0.67433E-05   981   0.931E-03    0.193E-02
RMM:   4    -0.145774052217E+04    0.27606E-05   -0.19087E-05   967   0.446E-03    0.102E-02
RMM:   5    -0.145774052065E+04    0.15239E-05   -0.18302E-06   604   0.159E-03    0.279E-03
RMM:   6    -0.145774052063E+04    0.13883E-07   -0.53800E-07   595   0.942E-04
  53 F= -.14577405E+04 E0= -.14577405E+04  d E =-.294588E-01
       N       E                     dE             d eps       ncg     rms          rms(c)
DAV:   1    -0.145776413699E+04   -0.23616E-01   -0.93618E+00   954   0.472E+00    0.826E-01
RMM:   2    -0.145777092321E+04   -0.67862E-02   -0.14612E-01   954   0.529E-01    0.493E-01
RMM:   3    -0.145776858322E+04    0.23400E-02   -0.13636E-02   977   0.134E-01    0.214E-01
RMM:   4    -0.145776853839E+04    0.44825E-04   -0.29477E-03   990   0.575E-02    0.140E-01
RMM:   5    -0.145776817856E+04    0.35983E-03   -0.43024E-04   973   0.203E-02    0.394E-02
RMM:   6    -0.145776817296E+04    0.55991E-05   -0.13466E-04   981   0.112E-02    0.215E-02
RMM:   7    -0.145776816876E+04    0.42035E-05   -0.19582E-05   972   0.450E-03    0.939E-03
RMM:   8    -0.145776816783E+04    0.92675E-06   -0.88167E-06   919   0.283E-03
  54 F= -.14577682E+04 E0= -.14577682E+04  d E =-.276472E-01
       N       E                     dE             d eps       ncg     rms          rms(c)
DAV:   1    -0.145776827142E+04   -0.10267E-03   -0.47071E-02  1076   0.335E-01    0.582E-02
RMM:   2    -0.145776830745E+04   -0.36025E-04   -0.74276E-04   954   0.377E-02    0.349E-02
RMM:   3    -0.145776829579E+04    0.11661E-04   -0.68023E-05   977   0.954E-03    0.142E-02
RMM:   4    -0.145776829600E+04   -0.21752E-06   -0.13051E-05   958   0.401E-03    0.864E-03
RMM:   5    -0.145776829467E+04    0.13336E-05   -0.16607E-06   602   0.143E-03    0.270E-03
RMM:   6    -0.145776829471E+04   -0.43481E-07   -0.73287E-07   594   0.103E-03
  55 F= -.14577683E+04 E0= -.14577683E+04  d E =-.277741E-01
       N       E                     dE             d eps       ncg     rms          rms(c)
DAV:   1    -0.145779128794E+04   -0.22993E-01   -0.88080E+00   954   0.457E+00    0.816E-01
RMM:   2    -0.145779715702E+04   -0.58691E-02   -0.13505E-01   954   0.507E-01    0.487E-01
RMM:   3    -0.145779557636E+04    0.15807E-02   -0.13161E-02   976   0.127E-01    0.302E-01
RMM:   4    -0.145779444047E+04    0.11359E-02   -0.37163E-03   980   0.622E-02    0.125E-01
RMM:   5    -0.145779424884E+04    0.19163E-03   -0.34107E-04   963   0.207E-02    0.359E-02
RMM:   6    -0.145779424124E+04    0.75952E-05   -0.96027E-05   984   0.970E-03    0.197E-02
RMM:   7    -0.145779423774E+04    0.35004E-05   -0.15757E-05   971   0.400E-03    0.854E-03
RMM:   8    -0.145779423738E+04    0.35856E-06   -0.57713E-06   845   0.243E-03
  56 F= -.14577942E+04 E0= -.14577942E+04  d E =-.259427E-01
       N       E                     dE             d eps       ncg     rms          rms(c)
DAV:   1    -0.145779438325E+04   -0.14551E-03   -0.65372E-02  1060   0.394E-01    0.702E-02
RMM:   2    -0.145779442767E+04   -0.44415E-04   -0.10099E-03   954   0.438E-02    0.420E-02
RMM:   3    -0.145779441586E+04    0.11804E-04   -0.98260E-05   975   0.110E-02    0.260E-02
RMM:   4    -0.145779440773E+04    0.81368E-05   -0.27901E-05   972   0.539E-03    0.110E-02
RMM:   5    -0.145779440617E+04    0.15573E-05   -0.22418E-06   610   0.183E-03    0.307E-03
RMM:   6    -0.145779440616E+04    0.47294E-08   -0.82927E-07   597   0.112E-03
  57 F= -.14577944E+04 E0= -.14577944E+04  d E =-.261114E-01
       N       E                     dE             d eps       ncg     rms          rms(c)
DAV:   1    -0.145781439919E+04   -0.19993E-01   -0.79875E+00   954   0.435E+00    0.775E-01
RMM:   2    -0.145781977544E+04   -0.53763E-02   -0.12455E-01   954   0.487E-01    0.462E-01
RMM:   3    -0.145781767896E+04    0.20965E-02   -0.11432E-02   973   0.122E-01    0.220E-01
RMM:   4    -0.145781735226E+04    0.32670E-03   -0.28099E-03   986   0.563E-02    0.110E-01
RMM:   5    -0.145781716124E+04    0.19101E-03   -0.32746E-04   975   0.185E-02    0.412E-02
RMM:   6    -0.145781714625E+04    0.14996E-04   -0.96666E-05   974   0.937E-03    0.255E-02
RMM:   7    -0.145781713996E+04    0.62831E-05   -0.29530E-05   960   0.526E-03    0.877E-03
RMM:   8    -0.145781713893E+04    0.10311E-05   -0.43964E-06   771   0.221E-03    0.448E-03
RMM:   9    -0.145781713882E+04    0.11564E-06   -0.19333E-06   598   0.157E-03
  58 F= -.14578171E+04 E0= -.14578171E+04  d E =-.227327E-01
       N       E                     dE             d eps       ncg     rms          rms(c)
DAV:   1    -0.145781719055E+04   -0.51613E-04   -0.23689E-02  1076   0.237E-01    0.423E-02
RMM:   2    -0.145781720683E+04   -0.16281E-04   -0.37691E-04   954   0.268E-02    0.252E-02
RMM:   3    -0.145781720035E+04    0.64739E-05   -0.34358E-05   974   0.669E-03    0.121E-02
RMM:   4    -0.145781719925E+04    0.11056E-05   -0.84452E-06   941   0.313E-03    0.600E-03
RMM:   5    -0.145781719865E+04    0.59525E-06   -0.91657E-07   597   0.111E-03
  59 F= -.14578172E+04 E0= -.14578172E+04  d E =-.227925E-01
       N       E                     dE             d eps       ncg     rms          rms(c)
DAV:   1    -0.145783551018E+04   -0.18311E-01   -0.67620E+00   954   0.399E+00    0.716E-01
RMM:   2    -0.145783974452E+04   -0.42343E-02   -0.10400E-01   954   0.444E-01    0.429E-01
RMM:   3    -0.145783814220E+04    0.16023E-02   -0.96566E-03   973   0.111E-01    0.224E-01
RMM:   4    -0.145783768403E+04    0.45817E-03   -0.27173E-03   984   0.544E-02    0.975E-02
RMM:   5    -0.145783754796E+04    0.13606E-03   -0.27219E-04   974   0.172E-02    0.406E-02
RMM:   6    -0.145783752789E+04    0.20074E-04   -0.73899E-05   973   0.827E-03    0.226E-02
RMM:   7    -0.145783752355E+04    0.43340E-05   -0.28619E-05   957   0.509E-03    0.779E-03
RMM:   8    -0.145783752284E+04    0.71276E-06   -0.25409E-06   617   0.185E-03
  60 F= -.14578375E+04 E0= -.14578375E+04  d E =-.203242E-01
       N       E                     dE             d eps       ncg     rms          rms(c)
DAV:   1    -0.145783763316E+04   -0.10960E-03   -0.46237E-02  1076   0.330E-01    0.587E-02
RMM:   2    -0.145783766268E+04   -0.29520E-04   -0.70660E-04   954   0.366E-02    0.352E-02
RMM:   3    -0.145783765184E+04    0.10838E-04   -0.65760E-05   976   0.915E-03    0.178E-02
RMM:   4    -0.145783764903E+04    0.28116E-05   -0.17575E-05   971   0.437E-03    0.815E-03
RMM:   5    -0.145783764800E+04    0.10248E-05   -0.15385E-06   600   0.144E-03    0.314E-03
RMM:   6    -0.145783764791E+04    0.94115E-07   -0.51439E-07   595   0.887E-04
  61 F= -.14578376E+04 E0= -.14578376E+04  d E =-.204493E-01
       N       E                     dE             d eps       ncg     rms          rms(c)
DAV:   1    -0.145785404388E+04   -0.16396E-01   -0.55498E+00   954   0.361E+00    0.661E-01
RMM:   2    -0.145785748034E+04   -0.34365E-02   -0.86585E-02   954   0.405E-01    0.392E-01
RMM:   3    -0.145785585025E+04    0.16301E-02   -0.79794E-03   970   0.103E-01    0.164E-01
RMM:   4    -0.145785577291E+04    0.77346E-04   -0.18084E-03   985   0.449E-02    0.948E-02
RMM:   5    -0.145785561340E+04    0.15951E-03   -0.22914E-04   982   0.150E-02    0.329E-02
RMM:   6    -0.145785560551E+04    0.78896E-05   -0.64871E-05   978   0.772E-03    0.192E-02
RMM:   7    -0.145785560291E+04    0.26083E-05   -0.19238E-05   959   0.419E-03    0.671E-03
RMM:   8    -0.145785560258E+04    0.32791E-06   -0.39981E-06   762   0.203E-03
  62 F= -.14578556E+04 E0= -.14578556E+04  d E =-.179547E-01
       N       E                     dE             d eps       ncg     rms          rms(c)
DAV:   1    -0.145785573006E+04   -0.12715E-03   -0.51611E-02  1060   0.348E-01    0.634E-02
RMM:   2    -0.145785576409E+04   -0.34032E-04   -0.81157E-04   954   0.392E-02    0.377E-02
RMM:   3    -0.145785574946E+04    0.14633E-04   -0.73737E-05   973   0.989E-03    0.151E-02
RMM:   4    -0.145785574922E+04    0.23880E-06   -0.15481E-05   971   0.421E-03    0.862E-03
RMM:   5    -0.145785574790E+04    0.13157E-05   -0.16889E-06   604   0.143E-03    0.297E-03
RMM:   6    -0.145785574791E+04   -0.53042E-08   -0.68160E-07   596   0.980E-04
  63 F= -.14578557E+04 E0= -.14578557E+04  d E =-.181000E-01
       N       E                     dE             d eps       ncg     rms          rms(c)
DAV:   1    -0.145787061276E+04   -0.14865E-01   -0.55172E+00   954   0.360E+00    0.665E-01
RMM:   2    -0.145787399690E+04   -0.33841E-02   -0.85628E-02   954   0.403E-01    0.397E-01
RMM:   3    -0.145787250428E+04    0.14926E-02   -0.80077E-03   972   0.102E-01    0.190E-01
RMM:   4    -0.145787225526E+04    0.24902E-03   -0.21471E-03   985   0.473E-02    0.100E-01
RMM:   5    -0.145787208444E+04    0.17082E-03   -0.23354E-04   970   0.157E-02    0.338E-02
RMM:   6    -0.145787207533E+04    0.91083E-05   -0.63126E-05   989   0.758E-03    0.204E-02
RMM:   7    -0.145787207265E+04    0.26813E-05   -0.20905E-05   957   0.436E-03    0.724E-03
RMM:   8    -0.145787207244E+04    0.20697E-06   -0.37905E-06   726   0.204E-03
  64 F= -.14578721E+04 E0= -.14578721E+04  d E =-.163245E-01
       N       E                     dE             d eps       ncg     rms          rms(c)
DAV:   1    -0.145787210781E+04   -0.35163E-04   -0.14376E-02  1076   0.184E-01    0.337E-02
RMM:   2    -0.145787211762E+04   -0.98097E-05   -0.22539E-04   954   0.207E-02    0.201E-02
RMM:   3    -0.145787211395E+04    0.36743E-05   -0.20527E-05   973   0.520E-03    0.865E-03
RMM:   4    -0.145787211387E+04    0.82204E-07   -0.46814E-06   762   0.233E-03
  65 F= -.14578721E+04 E0= -.14578721E+04  d E =-.163660E-01
       N       E                     dE             d eps       ncg     rms          rms(c)
DAV:   1    -0.145788487229E+04   -0.12758E-01   -0.55834E+00   954   0.362E+00    0.664E-01
RMM:   2    -0.145788864974E+04   -0.37774E-02   -0.89532E-02   954   0.412E-01    0.396E-01
RMM:   3    -0.145788707386E+04    0.15759E-02   -0.79909E-03   970   0.102E-01    0.179E-01
RMM:   4    -0.145788690516E+04    0.16870E-03   -0.20745E-03   985   0.475E-02    0.942E-02
RMM:   5    -0.145788674611E+04    0.15905E-03   -0.22180E-04   971   0.151E-02    0.332E-02
RMM:   6    -0.145788673827E+04    0.78427E-05   -0.68518E-05   983   0.784E-03    0.209E-02
RMM:   7    -0.145788673422E+04    0.40451E-05   -0.21911E-05   958   0.442E-03    0.745E-03
RMM:   8    -0.145788673352E+04    0.70164E-06   -0.47555E-06   810   0.219E-03
  66 F= -.14578867E+04 E0= -.14578867E+04  d E =-.146197E-01
       N       E                     dE             d eps       ncg     rms          rms(c)
DAV:   1    -0.145788673555E+04   -0.13266E-05   -0.10082E-03  1124   0.487E-02    0.928E-03
RMM:   2    -0.145788673603E+04   -0.48545E-06   -0.15518E-05   954   0.546E-03    0.550E-03
RMM:   3    -0.145788673580E+04    0.23113E-06   -0.12791E-06   595   0.140E-03
  67 F= -.14578867E+04 E0= -.14578867E+04  d E =-.146219E-01
       N       E                     dE             d eps       ncg     rms          rms(c)
DAV:   1    -0.145789882675E+04   -0.12091E-01   -0.40571E+00   954   0.309E+00    0.564E-01
RMM:   2    -0.145790140425E+04   -0.25775E-02   -0.63337E-02   954   0.346E-01    0.340E-01
RMM:   3    -0.145790051630E+04    0.88795E-03   -0.59514E-03   966   0.863E-02    0.198E-01
RMM:   4    -0.145790006132E+04    0.45499E-03   -0.18075E-03   979   0.430E-02    0.867E-02
RMM:   5    -0.145789995113E+04    0.11019E-03   -0.17033E-04   961   0.142E-02    0.273E-02
RMM:   6    -0.145789994433E+04    0.67945E-05   -0.49984E-05   990   0.674E-03    0.164E-02
RMM:   7    -0.145789994169E+04    0.26430E-05   -0.12062E-05   939   0.340E-03    0.604E-03
RMM:   8    -0.145789994133E+04    0.35794E-06   -0.24364E-06   616   0.170E-03
  68 F= -.14578999E+04 E0= -.14578999E+04  d E =-.132055E-01
       N       E                     dE             d eps       ncg     rms          rms(c)
DAV:   1    -0.145790004359E+04   -0.10189E-03   -0.42709E-02  1044   0.317E-01    0.577E-02
RMM:   2    -0.145790007093E+04   -0.27342E-04   -0.66932E-04   954   0.356E-02    0.347E-02
RMM:   3    -0.145790006068E+04    0.10247E-04   -0.62243E-05   966   0.888E-03    0.193E-02
RMM:   4    -0.145790005658E+04    0.41013E-05   -0.17981E-05   959   0.432E-03    0.901E-03
RMM:   5    -0.145790005523E+04    0.13505E-05   -0.15816E-06   602   0.150E-03    0.264E-03
RMM:   6    -0.145790005518E+04    0.44791E-07   -0.57317E-07   594   0.932E-04
  69 F= -.14579001E+04 E0= -.14579001E+04  d E =-.133194E-01
       N       E                     dE             d eps       ncg     rms          rms(c)
DAV:   1    -0.145791028017E+04   -0.10225E-01   -0.39647E+00   954   0.306E+00    0.557E-01
RMM:   2    -0.145791281820E+04   -0.25380E-02   -0.61645E-02   954   0.342E-01    0.335E-01
RMM:   3    -0.145791180023E+04    0.10180E-02   -0.58280E-03   970   0.866E-02    0.159E-01
RMM:   4    -0.145791164268E+04    0.15754E-03   -0.14476E-03   984   0.394E-02    0.895E-02
RMM:   5    -0.145791150770E+04    0.13498E-03   -0.17505E-04   971   0.135E-02    0.273E-02
RMM:   6    -0.145791150237E+04    0.53311E-05   -0.48427E-05   979   0.669E-03    0.167E-02
RMM:   7    -0.145791149989E+04    0.24808E-05   -0.13585E-05   946   0.354E-03    0.594E-03
RMM:   8    -0.145791149950E+04    0.39134E-06   -0.27150E-06   620   0.177E-03
  70 F= -.14579115E+04 E0= -.14579115E+04  d E =-.114443E-01
       N       E                     dE             d eps       ncg     rms          rms(c)
DAV:   1    -0.145791150692E+04   -0.70292E-05   -0.28038E-03  1116   0.813E-02    0.147E-02
RMM:   2    -0.145791150887E+04   -0.19546E-05   -0.44712E-05   954   0.918E-03    0.883E-03
RMM:   3    -0.145791150804E+04    0.83983E-06   -0.35707E-06   669   0.231E-03
  71 F= -.14579115E+04 E0= -.14579115E+04  d E =-.114529E-01
       N       E                     dE             d eps       ncg     rms          rms(c)
DAV:   1    -0.145792029414E+04   -0.87853E-02   -0.38558E+00   954   0.302E+00    0.551E-01
RMM:   2    -0.145792281074E+04   -0.25166E-02   -0.61114E-02   954   0.341E-01    0.328E-01
RMM:   3    -0.145792180080E+04    0.10099E-02   -0.57396E-03   968   0.865E-02    0.154E-01
RMM:   4    -0.145792169367E+04    0.10713E-03   -0.14387E-03   987   0.390E-02    0.932E-02
RMM:   5    -0.145792154126E+04    0.15241E-03   -0.16988E-04   967   0.135E-02    0.253E-02
RMM:   6    -0.145792153900E+04    0.22594E-05   -0.53972E-05   981   0.709E-03    0.148E-02
RMM:   7    -0.145792153713E+04    0.18688E-05   -0.96070E-06   917   0.306E-03    0.611E-03
RMM:   8    -0.145792153702E+04    0.10650E-06   -0.32721E-06   654   0.188E-03
  72 F= -.14579215E+04 E0= -.14579215E+04  d E =-.100290E-01
       N       E                     dE             d eps       ncg     rms          rms(c)
DAV:   1    -0.145792154269E+04   -0.55624E-05   -0.21505E-03  1092   0.715E-02    0.131E-02
RMM:   2    -0.145792154386E+04   -0.11635E-05   -0.33304E-05   954   0.799E-03    0.781E-03
RMM:   3    -0.145792154322E+04    0.63497E-06   -0.29345E-06   642   0.207E-03
  73 F= -.14579215E+04 E0= -.14579215E+04  d E =-.100352E-01
       N       E                     dE             d eps       ncg     rms          rms(c)
DAV:   1    -0.145792933635E+04   -0.77925E-02   -0.28457E+00   954   0.260E+00    0.474E-01
RMM:   2    -0.145793112463E+04   -0.17883E-02   -0.44321E-02   954   0.289E-01    0.285E-01
RMM:   3    -0.145793054796E+04    0.57667E-03   -0.43676E-03   972   0.737E-02    0.164E-01
RMM:   4    -0.145793023974E+04    0.30822E-03   -0.11651E-03   979   0.349E-02    0.726E-02
RMM:   5    -0.145793016883E+04    0.70911E-04   -0.11728E-04   966   0.118E-02    0.226E-02
RMM:   6    -0.145793016514E+04    0.36896E-05   -0.31158E-05   981   0.547E-03    0.131E-02
RMM:   7    -0.145793016415E+04    0.99529E-06   -0.76977E-06   883   0.274E-03
  74 F= -.14579302E+04 E0= -.14579302E+04  d E =-.862093E-02
       N       E                     dE             d eps       ncg     rms          rms(c)
DAV:   1    -0.145793018167E+04   -0.16528E-04   -0.71554E-03  1100   0.130E-01    0.234E-02
RMM:   2    -0.145793018663E+04   -0.49590E-05   -0.11070E-04   954   0.144E-02    0.142E-02
RMM:   3    -0.145793018544E+04    0.11945E-05   -0.10995E-05   967   0.376E-03    0.734E-03
RMM:   4    -0.145793018504E+04    0.39948E-06   -0.23300E-06   616   0.171E-03
  75 F= -.14579302E+04 E0= -.14579302E+04  d E =-.864182E-02
       N       E                     dE             d eps       ncg     rms          rms(c)
DAV:   1    -0.145793789683E+04   -0.77114E-02   -0.28937E+00   954   0.262E+00    0.465E-01
RMM:   2    -0.145793971211E+04   -0.18153E-02   -0.42931E-02   954   0.286E-01    0.277E-01
RMM:   3    -0.145793890873E+04    0.80337E-03   -0.40277E-03   968   0.732E-02    0.107E-01
RMM:   4    -0.145793891197E+04   -0.32383E-05   -0.83434E-04   994   0.309E-02    0.674E-02
RMM:   5    -0.145793882485E+04    0.87124E-04   -0.10630E-04   978   0.102E-02    0.208E-02
RMM:   6    -0.145793882256E+04    0.22836E-05   -0.35452E-05   972   0.572E-03    0.110E-02
RMM:   7    -0.145793882157E+04    0.99078E-06   -0.56619E-06   827   0.242E-03
  76 F= -.14579388E+04 E0= -.14579388E+04  d E =-.863654E-02
       N       E                     dE             d eps       ncg     rms          rms(c)
DAV:   1    -0.145793894997E+04   -0.12740E-03   -0.66406E-02  1028   0.396E-01    0.699E-02
RMM:   2    -0.145793899206E+04   -0.42095E-04   -0.97290E-04   954   0.431E-02    0.418E-02
RMM:   3    -0.145793897388E+04    0.18184E-04   -0.91827E-05   968   0.111E-02    0.150E-02
RMM:   4    -0.145793897404E+04   -0.16194E-06   -0.16197E-05   984   0.445E-03    0.846E-03
RMM:   5    -0.145793897271E+04    0.13270E-05   -0.16805E-06   605   0.144E-03    0.302E-03
RMM:   6    -0.145793897275E+04   -0.34706E-07   -0.84262E-07   596   0.107E-03
  77 F= -.14579390E+04 E0= -.14579390E+04  d E =-.878771E-02
       N       E                     dE             d eps       ncg     rms          rms(c)
DAV:   1    -0.145794644143E+04   -0.74687E-02   -0.26704E+00   954   0.252E+00    0.453E-01
RMM:   2    -0.145794805673E+04   -0.16153E-02   -0.38518E-02   954   0.270E-01    0.269E-01
RMM:   3    -0.145794732614E+04    0.73059E-03   -0.35969E-03   967   0.692E-02    0.971E-02
RMM:   4    -0.145794731398E+04    0.12161E-04   -0.63191E-04   997   0.280E-02    0.462E-02
RMM:   5    -0.145794727602E+04    0.37965E-04   -0.73129E-05   980   0.868E-03    0.198E-02
RMM:   6    -0.145794727361E+04    0.24035E-05   -0.29983E-05   964   0.525E-03    0.113E-02
RMM:   7    -0.145794727202E+04    0.15918E-05   -0.46935E-06   765   0.221E-03    0.438E-03
RMM:   8    -0.145794727180E+04    0.22109E-06   -0.21766E-06   603   0.160E-03
  78 F= -.14579473E+04 E0= -.14579473E+04  d E =-.829905E-02
       N       E                     dE             d eps       ncg     rms          rms(c)
DAV:   1    -0.145794748320E+04   -0.21118E-03   -0.10531E-01  1012   0.500E-01    0.898E-02
RMM:   2    -0.145794754791E+04   -0.64709E-04   -0.15241E-03   954   0.538E-02    0.534E-02
RMM:   3    -0.145794751871E+04    0.29198E-04   -0.14133E-04   968   0.137E-02    0.190E-02
RMM:   4    -0.145794751799E+04    0.72498E-06   -0.24049E-05   995   0.554E-03    0.844E-03
RMM:   5    -0.145794751670E+04    0.12850E-05   -0.22169E-06   619   0.167E-03    0.381E-03
RMM:   6    -0.145794751663E+04    0.75146E-07   -0.12161E-06   599   0.127E-03
  79 F= -.14579475E+04 E0= -.14579475E+04  d E =-.854388E-02
       N       E                     dE             d eps       ncg     rms          rms(c)
DAV:   1    -0.145795343761E+04   -0.59209E-02   -0.24514E+00   954   0.241E+00    0.428E-01
RMM:   2    -0.145795512917E+04   -0.16916E-02   -0.36896E-02   954   0.266E-01    0.256E-01
RMM:   3    -0.145795451238E+04    0.61679E-03   -0.33658E-03   972   0.665E-02    0.106E-01
RMM:   4    -0.145795449308E+04    0.19308E-04   -0.72193E-04   986   0.287E-02    0.617E-02
RMM:   5    -0.145795442287E+04    0.70202E-04   -0.96876E-05   975   0.976E-03    0.204E-02
RMM:   6    -0.145795441934E+04    0.35338E-05   -0.29225E-05   967   0.519E-03    0.118E-02
RMM:   7    -0.145795441817E+04    0.11713E-05   -0.76195E-06   882   0.272E-03    0.437E-03
RMM:   8    -0.145795441802E+04    0.15348E-06   -0.16317E-06   598   0.143E-03
  80 F= -.14579544E+04 E0= -.14579544E+04  d E =-.690139E-02
       N       E                     dE             d eps       ncg     rms          rms(c)
DAV:   1    -0.145795445157E+04   -0.33401E-04   -0.15031E-02  1060   0.189E-01    0.335E-02
RMM:   2    -0.145795446229E+04   -0.10723E-04   -0.22883E-04   954   0.209E-02    0.201E-02
RMM:   3    -0.145795445855E+04    0.37391E-05   -0.20664E-05   973   0.523E-03    0.815E-03
RMM:   4    -0.145795445845E+04    0.10039E-06   -0.38614E-06   683   0.226E-03
  81 F= -.14579545E+04 E0= -.14579545E+04  d E =-.694183E-02
       N       E                     dE             d eps       ncg     rms          rms(c)
DAV:   1    -0.145795962321E+04   -0.51647E-02   -0.19403E+00   954   0.214E+00    0.392E-01
RMM:   2    -0.145796087383E+04   -0.12506E-02   -0.28924E-02   954   0.236E-01    0.233E-01
RMM:   3    -0.145796035228E+04    0.52154E-03   -0.26592E-03   969   0.591E-02    0.900E-02
RMM:   4    -0.145796034651E+04    0.57747E-05   -0.53295E-04   988   0.252E-02    0.504E-02
RMM:   5    -0.145796029929E+04    0.47220E-04   -0.69454E-05   976   0.818E-03    0.176E-02
RMM:   6    -0.145796029740E+04    0.18879E-05   -0.23737E-05   958   0.463E-03    0.102E-02
RMM:   7    -0.145796029642E+04    0.97664E-06   -0.45913E-06   777   0.214E-03
  82 F= -.14579603E+04 E0= -.14579603E+04  d E =-.583797E-02
       N       E                     dE             d eps       ncg     rms          rms(c)
DAV:   1    -0.145796031732E+04   -0.19915E-04   -0.93393E-03  1084   0.149E-01    0.267E-02
RMM:   2    -0.145796032353E+04   -0.62153E-05   -0.13577E-04   954   0.161E-02    0.161E-02
RMM:   3    -0.145796032126E+04    0.22719E-05   -0.12752E-05   970   0.411E-03    0.572E-03
RMM:   4    -0.145796032122E+04    0.35376E-07   -0.17450E-06   608   0.165E-03
  83 F= -.14579603E+04 E0= -.14579603E+04  d E =-.586277E-02
       N       E                     dE             d eps       ncg     rms          rms(c)
DAV:   1    -0.145796529094E+04   -0.49697E-02   -0.17294E+00   954   0.202E+00    0.368E-01
RMM:   2    -0.145796637760E+04   -0.10867E-02   -0.25269E-02   954   0.220E-01    0.220E-01
RMM:   3    -0.145796590956E+04    0.46804E-03   -0.24348E-03   973   0.561E-02    0.763E-02
RMM:   4    -0.145796591190E+04   -0.23379E-05   -0.37470E-04  1001   0.216E-02    0.395E-02
RMM:   5    -0.145796588433E+04    0.27569E-04   -0.49758E-05   987   0.695E-03    0.158E-02
RMM:   6    -0.145796588226E+04    0.20717E-05   -0.24828E-05   956   0.470E-03    0.557E-03
RMM:   7    -0.145796588197E+04    0.28677E-06   -0.13120E-06   599   0.144E-03
  84 F= -.14579659E+04 E0= -.14579659E+04  d E =-.556075E-02
       N       E                     dE             d eps       ncg     rms          rms(c)
DAV:   1    -0.145796598389E+04   -0.10163E-03   -0.51173E-02  1028   0.348E-01    0.628E-02
RMM:   2    -0.145796601744E+04   -0.33544E-04   -0.74569E-04   954   0.378E-02    0.376E-02
RMM:   3    -0.145796600430E+04    0.13135E-04   -0.71218E-05   975   0.962E-03    0.126E-02
RMM:   4    -0.145796600415E+04    0.14999E-06   -0.92821E-06   965   0.357E-03
  85 F= -.14579660E+04 E0= -.14579660E+04  d E =-.568293E-02
       N       E                     dE             d eps       ncg     rms          rms(c)
DAV:   1    -0.145796993051E+04   -0.39262E-02   -0.17663E+00   954   0.204E+00    0.369E-01
RMM:   2    -0.145797107654E+04   -0.11460E-02   -0.26404E-02   954   0.225E-01    0.221E-01
RMM:   3    -0.145797059752E+04    0.47901E-03   -0.25104E-03   970   0.569E-02    0.893E-02
RMM:   4    -0.145797059634E+04    0.11812E-05   -0.54923E-04   991   0.243E-02    0.585E-02
RMM:   5    -0.145797052981E+04    0.66531E-04   -0.74774E-05   972   0.843E-03    0.157E-02
RMM:   6    -0.145797052866E+04    0.11559E-05   -0.29687E-05   967   0.512E-03    0.776E-03
RMM:   7    -0.145797052799E+04    0.66452E-06   -0.20842E-06   614   0.170E-03
  86 F= -.14579705E+04 E0= -.14579705E+04  d E =-.452384E-02
       N       E                     dE             d eps       ncg     rms          rms(c)
DAV:   1    -0.145797052817E+04    0.48854E-06   -0.16778E-04  1108   0.200E-02    0.438E-03
RMM:   2    -0.145797052828E+04   -0.11699E-06   -0.35438E-06   694   0.274E-03
  87 F= -.14579705E+04 E0= -.14579705E+04  d E =-.452413E-02
       N       E                     dE             d eps       ncg     rms          rms(c)
DAV:   1    -0.145797437072E+04   -0.38425E-02   -0.11634E+00   964   0.166E+00    0.305E-01
RMM:   2    -0.145797505665E+04   -0.68593E-03   -0.17193E-02   954   0.181E-01    0.181E-01
RMM:   3    -0.145797474427E+04    0.31238E-03   -0.16810E-03   968   0.461E-02    0.764E-02
RMM:   4    -0.145797473019E+04    0.14083E-04   -0.38440E-04   998   0.201E-02    0.492E-02
RMM:   5    -0.145797468462E+04    0.45567E-04   -0.48982E-05   968   0.695E-03    0.130E-02
RMM:   6    -0.145797468398E+04    0.63716E-06   -0.21143E-05   959   0.426E-03    0.492E-03
RMM:   7    -0.145797468352E+04    0.46130E-06   -0.94613E-07   598   0.126E-03
  88 F= -.14579747E+04 E0= -.14579747E+04  d E =-.415524E-02
       N       E                     dE             d eps       ncg     rms          rms(c)
DAV:   1    -0.145797477206E+04   -0.88079E-04   -0.37231E-02  1028   0.297E-01    0.545E-02
RMM:   2    -0.145797479409E+04   -0.22030E-04   -0.54773E-04   954   0.323E-02    0.324E-02
RMM:   3    -0.145797478343E+04    0.10662E-04   -0.53387E-05   972   0.826E-03    0.121E-02
RMM:   4    -0.145797478345E+04   -0.16895E-07   -0.99303E-06   953   0.337E-03
  89 F= -.14579748E+04 E0= -.14579748E+04  d E =-.425516E-02
       N       E                     dE             d eps       ncg     rms          rms(c)
DAV:   1    -0.145797850192E+04   -0.37185E-02   -0.11869E+00   954   0.167E+00    0.307E-01
RMM:   2    -0.145797914134E+04   -0.63942E-03   -0.16996E-02   954   0.180E-01    0.183E-01
RMM:   3    -0.145797882724E+04    0.31410E-03   -0.17198E-03   974   0.463E-02    0.839E-02
RMM:   4    -0.145797878278E+04    0.44458E-04   -0.39239E-04   984   0.199E-02    0.470E-02
RMM:   5    -0.145797874179E+04    0.40995E-04   -0.46264E-05   974   0.701E-03    0.128E-02
RMM:   6    -0.145797874089E+04    0.89240E-06   -0.16031E-05   960   0.375E-03    0.670E-03
RMM:   7    -0.145797874031E+04    0.58142E-06   -0.15432E-06   598   0.144E-03
  90 F= -.14579787E+04 E0= -.14579787E+04  d E =-.395686E-02
       N       E                     dE             d eps       ncg     rms          rms(c)
DAV:   1    -0.145797885791E+04   -0.11702E-03   -0.55305E-02  1012   0.361E-01    0.659E-02
RMM:   2    -0.145797888749E+04   -0.29573E-04   -0.78681E-04   954   0.388E-02    0.393E-02
RMM:   3    -0.145797887211E+04    0.15373E-04   -0.79410E-05   974   0.999E-03    0.164E-02
RMM:   4    -0.145797887111E+04    0.10046E-05   -0.16474E-05   965   0.413E-03    0.100E-02
RMM:   5    -0.145797886910E+04    0.20054E-05   -0.18836E-06   605   0.153E-03    0.266E-03
RMM:   6    -0.145797886907E+04    0.29875E-07   -0.85512E-07   595   0.108E-03
  91 F= -.14579789E+04 E0= -.14579789E+04  d E =-.408563E-02
       N       E                     dE             d eps       ncg     rms          rms(c)
DAV:   1    -0.145798252798E+04   -0.36589E-02   -0.11890E+00   954   0.167E+00    0.312E-01
RMM:   2    -0.145798309459E+04   -0.56661E-03   -0.16804E-02   954   0.179E-01    0.184E-01
RMM:   3    -0.145798271878E+04    0.37581E-03   -0.16976E-03   968   0.462E-02    0.662E-02
RMM:   4    -0.145798271903E+04   -0.24718E-06   -0.30775E-04   995   0.187E-02    0.397E-02
RMM:   5    -0.145798268817E+04    0.30858E-04   -0.42438E-05   983   0.634E-03    0.137E-02
RMM:   6    -0.145798268708E+04    0.10917E-05   -0.18877E-05   962   0.401E-03    0.666E-03
RMM:   7    -0.145798268647E+04    0.61287E-06   -0.14308E-06   599   0.138E-03
  92 F= -.14579827E+04 E0= -.14579827E+04  d E =-.381739E-02
       N       E                     dE             d eps       ncg     rms          rms(c)
DAV:   1    -0.145798280767E+04   -0.12059E-03   -0.58550E-02  1028   0.370E-01    0.687E-02
RMM:   2    -0.145798283594E+04   -0.28274E-04   -0.81872E-04   954   0.394E-02    0.406E-02
[...]
DAV:   1    -0.145800680266E+04   -0.46356E-03   -0.15012E-01   964   0.600E-01    0.105E-01
RMM:   2    -0.145800690190E+04   -0.99246E-04   -0.22863E-03   954   0.663E-02    0.620E-02
RMM:   3    -0.145800685911E+04    0.42796E-04   -0.21110E-04   970   0.168E-02    0.231E-02
RMM:   4    -0.145800685701E+04    0.20985E-05   -0.33244E-05   992   0.677E-03    0.708E-03
RMM:   5    -0.145800685651E+04    0.50057E-06   -0.29553E-06   645   0.195E-03
 120 F= -.14580069E+04 E0= -.14580069E+04  d E =-.517708E-03
       N       E                     dE             d eps       ncg     rms          rms(c)
DAV:   1    -0.145800686078E+04   -0.37701E-05   -0.14917E-03  1100   0.598E-02    0.110E-02
RMM:   2    -0.145800686212E+04   -0.13426E-05   -0.26574E-05   954   0.713E-03    0.670E-03
RMM:   3    -0.145800686174E+04    0.38499E-06   -0.20386E-06   618   0.178E-03
 121 F= -.14580069E+04 E0= -.14580069E+04  d E =-.522936E-03
       N       E                     dE             d eps       ncg     rms          rms(c)
DAV:   1    -0.145800722613E+04   -0.36401E-03   -0.13559E-01   964   0.571E-01    0.100E-01
RMM:   2    -0.145800733026E+04   -0.10412E-03   -0.21650E-03   954   0.645E-02    0.600E-02
RMM:   3    -0.145800730033E+04    0.29929E-04   -0.20114E-04   975   0.161E-02    0.315E-02
RMM:   4    -0.145800729323E+04    0.70976E-05   -0.53778E-05   985   0.759E-03    0.170E-02
RMM:   5    -0.145800728831E+04    0.49201E-05   -0.59603E-06   857   0.261E-03    0.460E-03
RMM:   6    -0.145800728814E+04    0.16758E-06   -0.17507E-06   599   0.146E-03
 122 F= -.14580073E+04 E0= -.14580073E+04  d E =-.426408E-03
       N       E                     dE             d eps       ncg     rms          rms(c)
DAV:   1    -0.145800728815E+04    0.15910E-06   -0.89803E-06  1004   0.459E-03    0.145E-03
RMM:   2    -0.145800728815E+04    0.42928E-09   -0.38435E-07   541   0.937E-04
 123 F= -.14580073E+04 E0= -.14580073E+04  d E =-.426416E-03
       N       E                     dE             d eps       ncg     rms          rms(c)
DAV:   1    -0.145800758023E+04   -0.29208E-03   -0.12787E-01   964   0.554E-01    0.988E-02
RMM:   2    -0.145800767722E+04   -0.96988E-04   -0.20369E-03   954   0.624E-02    0.592E-02
RMM:   3    -0.145800764934E+04    0.27879E-04   -0.18753E-04   975   0.156E-02    0.299E-02
RMM:   4    -0.145800764404E+04    0.53070E-05   -0.50372E-05   985   0.748E-03    0.161E-02
RMM:   5    -0.145800763971E+04    0.43224E-05   -0.57411E-06   828   0.253E-03    0.497E-03
RMM:   6    -0.145800763943E+04    0.28795E-06   -0.15388E-06   597   0.139E-03
 124 F= -.14580076E+04 E0= -.14580076E+04  d E =-.351273E-03
       N       E                     dE             d eps       ncg     rms          rms(c)
DAV:   1    -0.145800763998E+04   -0.26303E-06   -0.35619E-04  1076   0.293E-02    0.518E-03
RMM:   2    -0.145800764012E+04   -0.14738E-06   -0.51197E-06   808   0.319E-03
 125 F= -.14580076E+04 E0= -.14580076E+04  d E =-.351972E-03
       N       E                     dE             d eps       ncg     rms          rms(c)
DAV:   1    -0.145800794547E+04   -0.30549E-03   -0.10105E-01   964   0.493E-01    0.866E-02
RMM:   2    -0.145800802015E+04   -0.74677E-04   -0.15511E-03   954   0.544E-02    0.522E-02
RMM:   3    -0.145800800270E+04    0.17451E-04   -0.14403E-04   981   0.135E-02    0.311E-02
RMM:   4    -0.145800799207E+04    0.10622E-04   -0.42734E-05   980   0.672E-03    0.131E-02
RMM:   5    -0.145800798975E+04    0.23269E-05   -0.38285E-06   690   0.226E-03    0.425E-03
RMM:   6    -0.145800798950E+04    0.24314E-06   -0.11040E-06   597   0.125E-03
 126 F= -.14580080E+04 E0= -.14580080E+04  d E =-.349381E-03
       N       E                     dE             d eps       ncg     rms          rms(c)
DAV:   1    -0.145800799329E+04   -0.35413E-05   -0.15339E-03  1060   0.607E-02    0.109E-02
RMM:   2    -0.145800799462E+04   -0.13272E-05   -0.25071E-05   954   0.692E-03    0.671E-03
RMM:   3    -0.145800799436E+04    0.26078E-06   -0.19573E-06   614   0.175E-03
 127 F= -.14580080E+04 E0= -.14580080E+04  d E =-.354232E-03
       N       E                     dE             d eps       ncg     rms          rms(c)
DAV:   1    -0.145800823287E+04   -0.23825E-03   -0.10733E-01   964   0.507E-01    0.904E-02
RMM:   2    -0.145800831149E+04   -0.78619E-04   -0.17010E-03   954   0.571E-02    0.546E-02
RMM:   3    -0.145800829001E+04    0.21476E-04   -0.15885E-04   972   0.143E-02    0.317E-02
RMM:   4    -0.145800827920E+04    0.10815E-04   -0.46230E-05   982   0.699E-03    0.143E-02
RMM:   5    -0.145800827622E+04    0.29820E-05   -0.38546E-06   688   0.229E-03    0.406E-03
RMM:   6    -0.145800827601E+04    0.20368E-06   -0.12707E-06   598   0.133E-03
 128 F= -.14580083E+04 E0= -.14580083E+04  d E =-.281656E-03
       N       E                     dE             d eps       ncg     rms          rms(c)
DAV:   1    -0.145800827700E+04   -0.78350E-06   -0.54221E-04  1060   0.360E-02    0.635E-03
RMM:   2    -0.145800827728E+04   -0.28321E-06   -0.80951E-06   954   0.395E-03
 129 F= -.14580083E+04 E0= -.14580083E+04  d E =-.282926E-03
       N       E                     dE             d eps       ncg     rms          rms(c)
DAV:   1    -0.145800850356E+04   -0.22656E-03   -0.82097E-02   964   0.442E-01    0.798E-02
RMM:   2    -0.145800856038E+04   -0.56822E-04   -0.12620E-03   954   0.493E-02    0.468E-02
RMM:   3    -0.145800853919E+04    0.21189E-04   -0.11234E-04   974   0.122E-02    0.208E-02
RMM:   4    -0.145800853829E+04    0.90027E-06   -0.28420E-05   980   0.557E-03    0.128E-02
RMM:   5    -0.145800853504E+04    0.32547E-05   -0.33072E-06   666   0.193E-03    0.350E-03
RMM:   6    -0.145800853489E+04    0.14557E-06   -0.12841E-06   599   0.130E-03
 130 F= -.14580085E+04 E0= -.14580085E+04  d E =-.257610E-03
       N       E                     dE             d eps       ncg     rms          rms(c)
DAV:   1    -0.145800853535E+04   -0.31263E-06   -0.11670E-04  1124   0.166E-02    0.329E-03
RMM:   2    -0.145800853539E+04   -0.35317E-07   -0.18411E-06   593   0.203E-03
 131 F= -.14580085E+04 E0= -.14580085E+04  d E =-.258104E-03
       N       E                     dE             d eps       ncg     rms          rms(c)
DAV:   1    -0.145800873996E+04   -0.20461E-03   -0.58716E-02   964   0.374E-01    0.686E-02
RMM:   2    -0.145800878170E+04   -0.41746E-04   -0.95214E-04   954   0.427E-02    0.407E-02
RMM:   3    -0.145800876733E+04    0.14375E-04   -0.88531E-05   973   0.107E-02    0.210E-02
RMM:   4    -0.145800876420E+04    0.31242E-05   -0.24865E-05   974   0.510E-03    0.114E-02
RMM:   5    -0.145800876192E+04    0.22865E-05   -0.23281E-06   614   0.175E-03    0.311E-03
RMM:   6    -0.145800876179E+04    0.12647E-06   -0.10218E-06   596   0.118E-03
 132 F= -.14580088E+04 E0= -.14580088E+04  d E =-.226406E-03
       N       E                     dE             d eps       ncg     rms          rms(c)
DAV:   1    -0.145800876461E+04   -0.26950E-05   -0.73407E-04  1076   0.418E-02    0.772E-03
RMM:   2    -0.145800876522E+04   -0.60577E-06   -0.12599E-05   954   0.492E-03    0.468E-03
RMM:   3    -0.145800876505E+04    0.16468E-06   -0.98691E-07   592   0.127E-03
 133 F= -.14580088E+04 E0= -.14580088E+04  d E =-.229668E-03
       N       E                     dE             d eps       ncg     rms          rms(c)
DAV:   1    -0.145800892333E+04   -0.15811E-03   -0.60220E-02   964   0.380E-01    0.687E-02
RMM:   2    -0.145800896887E+04   -0.45545E-04   -0.98359E-04   954   0.434E-02    0.407E-02
RMM:   3    -0.145800895294E+04    0.15931E-04   -0.86597E-05   969   0.108E-02    0.181E-02
RMM:   4    -0.145800895168E+04    0.12606E-05   -0.20006E-05   976   0.482E-03    0.955E-03
RMM:   5    -0.145800895006E+04    0.16237E-05   -0.21822E-06   615   0.164E-03    0.333E-03
RMM:   6    -0.145800894994E+04    0.11758E-06   -0.81539E-07   596   0.108E-03
 134 F= -.14580089E+04 E0= -.14580089E+04  d E =-.184886E-03
       N       E                     dE             d eps       ncg     rms          rms(c)
DAV:   1    -0.145800895015E+04   -0.87515E-07   -0.55494E-05  1108   0.115E-02    0.213E-03
RMM:   2    -0.145800895012E+04    0.24818E-07   -0.67438E-07   542   0.123E-03
 135 F= -.14580090E+04 E0= -.14580090E+04  d E =-.185067E-03
       N       E                     dE             d eps       ncg     rms          rms(c)
DAV:   1    -0.145800909022E+04   -0.14008E-03   -0.53395E-02   964   0.358E-01    0.633E-02
RMM:   2    -0.145800912899E+04   -0.38767E-04   -0.84061E-04   954   0.402E-02    0.375E-02
RMM:   3    -0.145800911573E+04    0.13262E-04   -0.73450E-05   976   0.982E-03    0.185E-02
RMM:   4    -0.145800911359E+04    0.21376E-05   -0.20059E-05   967   0.465E-03    0.976E-03
RMM:   5    -0.145800911199E+04    0.16033E-05   -0.21477E-06   615   0.163E-03    0.333E-03
RMM:   6    -0.145800911187E+04    0.11762E-06   -0.71742E-07   596   0.104E-03
 136 F= -.14580091E+04 E0= -.14580091E+04  d E =-.161750E-03
       N       E                     dE             d eps       ncg     rms          rms(c)
DAV:   1    -0.145800911208E+04   -0.89640E-07   -0.84769E-05  1124   0.143E-02    0.276E-03
RMM:   2    -0.145800911214E+04   -0.63796E-07   -0.15551E-06   575   0.187E-03
 137 F= -.14580091E+04 E0= -.14580091E+04  d E =-.162021E-03
       N       E                     dE             d eps       ncg     rms          rms(c)
DAV:   1    -0.145800923184E+04   -0.11976E-03   -0.44636E-02   964   0.327E-01    0.593E-02
RMM:   2    -0.145800926314E+04   -0.31304E-04   -0.71654E-04   954   0.370E-02    0.354E-02
RMM:   3    -0.145800925173E+04    0.11415E-04   -0.66248E-05   978   0.925E-03    0.166E-02
RMM:   4    -0.145800925038E+04    0.13470E-05   -0.16513E-05   965   0.427E-03    0.921E-03
RMM:   5    -0.145800924890E+04    0.14852E-05   -0.17547E-06   604   0.150E-03    0.305E-03
RMM:   6    -0.145800924880E+04    0.99426E-07   -0.65167E-07   593   0.991E-04
 138 F= -.14580092E+04 E0= -.14580092E+04  d E =-.136655E-03
       N       E                     dE             d eps       ncg     rms          rms(c)
DAV:   1    -0.145800924874E+04    0.15845E-06   -0.34963E-06   980   0.288E-03    0.828E-04
RMM:   2    -0.145800924872E+04    0.17724E-07   -0.97924E-08   468   0.509E-04
 139 F= -.14580092E+04 E0= -.14580092E+04  d E =-.136578E-03
       N       E                     dE             d eps       ncg     rms          rms(c)
DAV:   1    -0.145800935813E+04   -0.10939E-03   -0.40308E-02   964   0.310E-01    0.557E-02
RMM:   2    -0.145800938775E+04   -0.29626E-04   -0.65236E-04   954   0.352E-02    0.333E-02
RMM:   3    -0.145800937929E+04    0.84665E-05   -0.60300E-05   976   0.872E-03    0.193E-02
RMM:   4    -0.145800937523E+04    0.40617E-05   -0.16880E-05   963   0.425E-03    0.894E-03
RMM:   5    -0.145800937399E+04    0.12330E-05   -0.16035E-06   602   0.152E-03    0.275E-03
RMM:   6    -0.145800937388E+04    0.11730E-06   -0.51008E-07   592   0.912E-04
 140 F= -.14580094E+04 E0= -.14580094E+04  d E =-.125157E-03
       N       E                     dE             d eps       ncg     rms          rms(c)
DAV:   1    -0.145800937394E+04    0.49091E-07   -0.29309E-05  1132   0.836E-03    0.170E-03
RMM:   2    -0.145800937395E+04   -0.50350E-08   -0.59216E-07   532   0.115E-03
 141 F= -.14580094E+04 E0= -.14580094E+04  d E =-.125230E-03
       N       E                     dE             d eps       ncg     rms          rms(c)
DAV:   1    -0.145800947289E+04   -0.98949E-04   -0.43929E-02   964   0.324E-01    0.569E-02
RMM:   2    -0.145800950546E+04   -0.32564E-04   -0.71600E-04   954   0.367E-02    0.338E-02
RMM:   3    -0.145800949410E+04    0.11356E-04   -0.62879E-05   974   0.912E-03    0.165E-02
RMM:   4    -0.145800949258E+04    0.15195E-05   -0.15967E-05   964   0.427E-03    0.905E-03
RMM:   5    -0.145800949116E+04    0.14243E-05   -0.18384E-06   604   0.153E-03    0.298E-03
RMM:   6    -0.145800949105E+04    0.10595E-06   -0.56546E-07   592   0.945E-04
 142 F= -.14580095E+04 E0= -.14580095E+04  d E =-.117102E-03
       N       E                     dE             d eps       ncg     rms          rms(c)
DAV:   1    -0.145800949101E+04    0.14627E-06   -0.32759E-07   700   0.826E-04    0.555E-04
RMM:   2    -0.145800949101E+04    0.50204E-09   -0.92683E-08   507   0.458E-04
 143 F= -.14580095E+04 E0= -.14580095E+04  d E =-.117062E-03
       N       E                     dE             d eps       ncg     rms          rms(c)
DAV:   1    -0.145800957517E+04   -0.84154E-04   -0.34654E-02   964   0.288E-01    0.506E-02
RMM:   2    -0.145800960012E+04   -0.24959E-04   -0.55412E-04   954   0.323E-02    0.298E-02
RMM:   3    -0.145800959249E+04    0.76358E-05   -0.49893E-05   976   0.802E-03    0.160E-02
RMM:   4    -0.145800959061E+04    0.18827E-05   -0.13537E-05   957   0.383E-03    0.844E-03
RMM:   5    -0.145800958959E+04    0.10124E-05   -0.15043E-06   601   0.142E-03    0.256E-03
RMM:   6    -0.145800958956E+04    0.35223E-07   -0.47046E-07   589   0.875E-04
 144 F= -.14580096E+04 E0= -.14580096E+04  d E =-.985467E-04
       N       E                     dE             d eps       ncg     rms          rms(c)
DAV:   1    -0.145800958961E+04   -0.20213E-07   -0.20643E-05  1108   0.703E-03    0.142E-03
RMM:   2    -0.145800958965E+04   -0.33237E-07   -0.46429E-07   525   0.102E-03
 145 F= -.14580096E+04 E0= -.14580096E+04  d E =-.986354E-04
       N       E                     dE             d eps       ncg     rms          rms(c)
DAV:   1    -0.145800966499E+04   -0.75382E-04   -0.29249E-02   964   0.264E-01    0.479E-02
RMM:   2    -0.145800968511E+04   -0.20113E-04   -0.47150E-04   954   0.298E-02    0.281E-02
RMM:   3    -0.145800967683E+04    0.82817E-05   -0.43180E-05   974   0.750E-03    0.121E-02
RMM:   4    -0.145800967634E+04    0.48753E-06   -0.92399E-06   950   0.334E-03
 146 F= -.14580097E+04 E0= -.14580097E+04  d E =-.866919E-04
       N       E                     dE             d eps       ncg     rms          rms(c)
DAV:   1    -0.145800967557E+04    0.12515E-05   -0.73833E-06   988   0.377E-03    0.250E-03
RMM:   2    -0.145800967563E+04   -0.58455E-07   -0.11578E-06   551   0.152E-03
 147 F= -.14580097E+04 E0= -.14580097E+04  d E =-.859865E-04
       N       E                     dE             d eps       ncg     rms          rms(c)
DAV:   1    -0.145800974555E+04   -0.69972E-04   -0.26372E-02   964   0.250E-01    0.449E-02
RMM:   2    -0.145800976455E+04   -0.19004E-04   -0.42619E-04   954   0.285E-02    0.267E-02
RMM:   3    -0.145800975690E+04    0.76486E-05   -0.38597E-05   976   0.708E-03    0.113E-02
RMM:   4    -0.145800975624E+04    0.66381E-06   -0.78555E-06   931   0.313E-03
 148 F= -.14580098E+04 E0= -.14580098E+04  d E =-.806048E-04
       N       E                     dE             d eps       ncg     rms          rms(c)
DAV:   1    -0.145800975596E+04    0.93681E-06   -0.10228E-04  1140   0.157E-02    0.365E-03
RMM:   2    -0.145800975617E+04   -0.20184E-06   -0.27567E-06   646   0.237E-03
 149 F= -.14580098E+04 E0= -.14580098E+04  d E =-.805337E-04
       N       E                     dE             d eps       ncg     rms          rms(c)
DAV:   1    -0.145800983198E+04   -0.76017E-04   -0.24503E-02   964   0.241E-01    0.443E-02
RMM:   2    -0.145800984524E+04   -0.13263E-04   -0.36969E-04   954   0.264E-02    0.260E-02
RMM:   3    -0.145800983893E+04    0.63094E-05   -0.36357E-05   973   0.678E-03    0.124E-02
RMM:   4    -0.145800983783E+04    0.11020E-05   -0.85021E-06   932   0.308E-03    0.665E-03
RMM:   5    -0.145800983704E+04    0.78908E-06   -0.98254E-07   597   0.117E-03
 150 F= -.14580098E+04 E0= -.14580098E+04  d E =-.808777E-04
       N       E                     dE             d eps       ncg     rms          rms(c)
DAV:   1    -0.145800983875E+04   -0.92006E-06   -0.61575E-04  1060   0.382E-02    0.717E-03
RMM:   2    -0.145800983921E+04   -0.46105E-06   -0.10090E-05   954   0.435E-03    0.435E-03
RMM:   3    -0.145800983904E+04    0.17342E-06   -0.70179E-07   592   0.108E-03
 151 F= -.14580098E+04 E0= -.14580098E+04  d E =-.828745E-04
       N       E                     dE             d eps       ncg     rms          rms(c)
DAV:   1    -0.145800988994E+04   -0.50722E-04   -0.24769E-02   972   0.243E-01    0.432E-02
RMM:   2    -0.145800990671E+04   -0.16772E-04   -0.38900E-04   954   0.272E-02    0.256E-02
RMM:   3    -0.145800989990E+04    0.68093E-05   -0.35776E-05   970   0.686E-03    0.111E-02
RMM:   4    -0.145800989940E+04    0.50232E-06   -0.79972E-06   929   0.307E-03
 152 F= -.14580099E+04 E0= -.14580099E+04  d E =-.603565E-04
       N       E                     dE             d eps       ncg     rms          rms(c)
DAV:   1    -0.145800989934E+04    0.56294E-06   -0.24161E-04  1060   0.238E-02    0.459E-03
RMM:   2    -0.145800989932E+04    0.17637E-07   -0.41851E-06   735   0.290E-03
 153 F= -.14580099E+04 E0= -.14580099E+04  d E =-.602783E-04
       N       E                     dE             d eps       ncg     rms          rms(c)
DAV:   1    -0.145800994395E+04   -0.44618E-04   -0.20692E-02   964   0.222E-01    0.388E-02
RMM:   2    -0.145800995868E+04   -0.14723E-04   -0.31603E-04   954   0.246E-02    0.229E-02
RMM:   3    -0.145800995365E+04    0.50284E-05   -0.28201E-05   975   0.610E-03    0.988E-03
RMM:   4    -0.145800995324E+04    0.40606E-06   -0.58605E-06   880   0.270E-03
 154 F= -.14580100E+04 E0= -.14580100E+04  d E =-.539238E-04
       N       E                     dE             d eps       ncg     rms          rms(c)
DAV:   1    -0.145800995299E+04    0.66001E-06   -0.56440E-05  1124   0.116E-02    0.262E-03
RMM:   2    -0.145800995295E+04    0.38301E-07   -0.12174E-06   558   0.160E-03
 155 F= -.14580100E+04 E0= -.14580100E+04  d E =-.536315E-04
       N       E                     dE             d eps       ncg     rms          rms(c)
DAV:   1    -0.145801000026E+04   -0.47266E-04   -0.15054E-02   964   0.189E-01    0.337E-02
RMM:   2    -0.145801001072E+04   -0.10469E-04   -0.22865E-04   954   0.208E-02    0.199E-02
RMM:   3    -0.145801000755E+04    0.31728E-05   -0.21312E-05   976   0.521E-03    0.102E-02
RMM:   4    -0.145801000693E+04    0.62433E-06   -0.54066E-06   814   0.247E-03
 156 F= -.14580100E+04 E0= -.14580100E+04  d E =-.539762E-04
       N       E                     dE             d eps       ncg     rms          rms(c)
DAV:   1    -0.145801000714E+04    0.41116E-06   -0.20373E-04  1100   0.220E-02    0.449E-03
RMM:   2    -0.145801000744E+04   -0.30285E-06   -0.38930E-06   715   0.277E-03
 157 F= -.14580100E+04 E0= -.14580100E+04  d E =-.544923E-04
       N       E                     dE             d eps       ncg     rms          rms(c)
DAV:   1    -0.145801004896E+04   -0.41819E-04   -0.15297E-02   964   0.191E-01    0.349E-02
RMM:   2    -0.145801005848E+04   -0.95252E-05   -0.23878E-04   954   0.214E-02    0.208E-02
RMM:   3    -0.145801005385E+04    0.46362E-05   -0.23311E-05   966   0.554E-03    0.845E-03
RMM:   4    -0.145801005360E+04    0.24684E-06   -0.44937E-06   726   0.236E-03
 158 F= -.14580101E+04 E0= -.14580101E+04  d E =-.461586E-04
       N       E                     dE             d eps       ncg     rms          rms(c)
DAV:   1    -0.145801005312E+04    0.73056E-06   -0.58059E-06   964   0.317E-03    0.176E-03
RMM:   2    -0.145801005309E+04    0.29999E-07   -0.56011E-07   530   0.110E-03
 159 F= -.14580101E+04 E0= -.14580101E+04  d E =-.456449E-04
       N       E                     dE             d eps       ncg     rms          rms(c)
DAV:   1    -0.145801009550E+04   -0.42382E-04   -0.14200E-02   954   0.183E-01    0.337E-02
RMM:   2    -0.145801010372E+04   -0.82203E-05   -0.21418E-04   954   0.202E-02    0.197E-02
RMM:   3    -0.145801009944E+04    0.42777E-05   -0.20557E-05   970   0.516E-03    0.790E-03
RMM:   4    -0.145801009896E+04    0.47997E-06   -0.35091E-06   666   0.220E-03
 160 F= -.14580101E+04 E0= -.14580101E+04  d E =-.458749E-04
