       N       E                     dE             d eps       ncg     rms          rms(c)
DAV:   1     0.220841108535E+04    0.22084E+04   -0.27705E+05   966   0.108E+03
DAV:   2    -0.127826401027E+04   -0.34867E+04   -0.33167E+04  1185   0.227E+02
DAV:   3    -0.158034449631E+04   -0.30208E+03   -0.29802E+03  1188   0.651E+01
DAV:   4    -0.159467609162E+04   -0.14332E+02   -0.14278E+02  1340   0.147E+01
DAV:   5    -0.159512235224E+04   -0.44626E+00   -0.44551E+00  1228   0.245E+00    0.759E+01
RMM:   6    -0.145833636319E+04    0.13679E+03   -0.43285E+02   972   0.190E+01    0.349E+01
RMM:   7    -0.145026746247E+04    0.80689E+01   -0.73183E+01   972   0.782E+00    0.162E+01
RMM:   8    -0.144832295048E+04    0.19445E+01   -0.47372E+00   985   0.240E+00    0.365E+00
RMM:   9    -0.144824485392E+04    0.78097E-01   -0.82206E-01   986   0.101E+00    0.112E+00
RMM:  10    -0.144823453437E+04    0.10320E-01   -0.24397E-01  1014   0.453E-01    0.624E-01
RMM:  11    -0.144823639555E+04   -0.18612E-02   -0.58019E-02   968   0.247E-01    0.244E-01
RMM:  12    -0.144824313649E+04   -0.67409E-02   -0.23010E-02   976   0.148E-01    0.166E-01
RMM:  13    -0.144824965946E+04   -0.65230E-02   -0.91366E-03   972   0.908E-02    0.851E-02
RMM:  14    -0.144825224033E+04   -0.25809E-02   -0.15626E-03   983   0.435E-02    0.401E-02
RMM:  15    -0.144825311114E+04   -0.87081E-03   -0.60097E-04   985   0.270E-02    0.204E-02
RMM:  16    -0.144825318160E+04   -0.70459E-04   -0.87399E-05   985   0.101E-02    0.656E-03
RMM:  17    -0.144825320681E+04   -0.25216E-04   -0.23842E-05   982   0.508E-03    0.572E-03
RMM:  18    -0.144825321150E+04   -0.46897E-05   -0.37915E-06   669   0.195E-03    0.166E-03
RMM:  19    -0.144825321335E+04   -0.18502E-05   -0.14199E-06   609   0.128E-03    0.750E-04
RMM:  20    -0.144825321334E+04    0.13068E-07   -0.24052E-07   599   0.588E-04
   1 F= -.14482532E+04 E0= -.14482532E+04  d E =-.144825E+04
       N       E                     dE             d eps       ncg     rms          rms(c)
DAV:   1    -0.147096361033E+04   -0.22710E+02   -0.14923E+03   966   0.588E+01    0.195E+01
RMM:   2    -0.147368844762E+04   -0.27248E+01   -0.54176E+01   968   0.103E+01    0.750E+00
RMM:   3    -0.147316306047E+04    0.52539E+00   -0.30388E+00   972   0.207E+00    0.476E+00
RMM:   4    -0.147295144274E+04    0.21162E+00   -0.10799E+00   990   0.114E+00    0.156E+00
RMM:   5    -0.147293924170E+04    0.12201E-01   -0.57537E-02   984   0.280E-01    0.816E-01
RMM:   6    -0.147293916709E+04    0.74606E-04   -0.12421E-02  1016   0.126E-01    0.377E-01
RMM:   7    -0.147294025909E+04   -0.10920E-02   -0.23132E-03   988   0.533E-02    0.103E-01
RMM:   8    -0.147294092622E+04   -0.66713E-03   -0.48407E-04   989   0.248E-02    0.424E-02
RMM:   9    -0.147294159412E+04   -0.66790E-03   -0.34805E-04   974   0.178E-02    0.203E-02
RMM:  10    -0.147294176418E+04   -0.17006E-03   -0.55752E-05   987   0.707E-03    0.858E-03
RMM:  11    -0.147294211452E+04   -0.35034E-03   -0.14523E-04   966   0.950E-03    0.111E-02
RMM:  12    -0.147294213900E+04   -0.24477E-04   -0.18016E-05   865   0.304E-03    0.621E-03
RMM:  13    -0.147294215005E+04   -0.11053E-04   -0.45143E-06   712   0.190E-03    0.253E-03
RMM:  14    -0.147294215139E+04   -0.13337E-05   -0.83643E-07   609   0.944E-04    0.101E-03
RMM:  15    -0.147294215174E+04   -0.35059E-06   -0.28852E-07   590   0.569E-04
   2 F= -.14729422E+04 E0= -.14729422E+04  d E =-.246889E+02
       N       E                     dE             d eps       ncg     rms          rms(c)
DAV:   1    -0.147364990307E+04   -0.70775E+00   -0.69542E+01  1036   0.132E+01    0.261E+00
RMM:   2    -0.147378383974E+04   -0.13394E+00   -0.25643E+00   966   0.217E+00    0.183E+00
RMM:   3    -0.147374037728E+04    0.43462E-01   -0.18674E-01   970   0.481E-01    0.860E-01
RMM:   4    -0.147373525764E+04    0.51196E-02   -0.39596E-02  1001   0.218E-01    0.290E-01
RMM:   5    -0.147373428569E+04    0.97195E-03   -0.45129E-03   984   0.749E-02    0.930E-02
RMM:   6    -0.147373434846E+04   -0.62768E-04   -0.51528E-04  1041   0.246E-02    0.593E-02
RMM:   7    -0.147373445072E+04   -0.10226E-03   -0.11925E-04   978   0.116E-02    0.142E-02
RMM:   8    -0.147373449498E+04   -0.44262E-04   -0.23217E-05   981   0.481E-03    0.796E-03
RMM:   9    -0.147373454019E+04   -0.45212E-04   -0.12941E-05   887   0.327E-03    0.399E-03
RMM:  10    -0.147373455217E+04   -0.11979E-04   -0.33273E-06   677   0.168E-03    0.147E-03
RMM:  11    -0.147373456264E+04   -0.10474E-04   -0.36412E-06   694   0.156E-03    0.200E-03
RMM:  12    -0.147373456355E+04   -0.90507E-06   -0.50878E-07   606   0.725E-04
   3 F= -.14737346E+04 E0= -.14737346E+04  d E =-.254814E+02
       N       E                     dE             d eps       ncg     rms          rms(c)
DAV:   1    -0.146817811892E+04    0.55564E+01   -0.17367E+03   974   0.653E+01    0.194E+01
RMM:   2    -0.147310331057E+04   -0.49252E+01   -0.78329E+01   966   0.124E+01    0.938E+00
RMM:   3    -0.147185180584E+04    0.12515E+01   -0.41025E+00   971   0.233E+00    0.633E+00
RMM:   4    -0.147148862744E+04    0.36318E+00   -0.30411E+00   977   0.182E+00    0.201E+00
RMM:   5    -0.147145528000E+04    0.33347E-01   -0.14074E-01   966   0.418E-01    0.933E-01
RMM:   6    -0.147145418000E+04    0.11000E-02   -0.22965E-02  1005   0.178E-01    0.209E-01
RMM:   7    -0.147145427369E+04   -0.93686E-04   -0.12808E-02   972   0.105E-01    0.148E-01
RMM:   8    -0.147145353881E+04    0.73488E-03   -0.28484E-03   968   0.504E-02    0.270E-02
RMM:   9    -0.147145354207E+04   -0.32586E-05   -0.13211E-04  1006   0.137E-02    0.113E-02
RMM:  10    -0.147145354760E+04   -0.55348E-05   -0.19842E-05  1001   0.467E-03    0.422E-03
RMM:  11    -0.147145355052E+04   -0.29191E-05   -0.47193E-06   767   0.218E-03    0.260E-03
RMM:  12    -0.147145355123E+04   -0.70662E-06   -0.95390E-07   602   0.115E-03
   4 F= -.14714536E+04 E0= -.14714536E+04  d E =0.228101E+01
       N       E                     dE             d eps       ncg     rms          rms(c)
DAV:   1    -0.147843252242E+04   -0.69790E+01   -0.47695E+02   966   0.353E+01    0.780E+00
RMM:   2    -0.147971152962E+04   -0.12790E+01   -0.22801E+01   968   0.653E+00    0.486E+00
RMM:   3    -0.147925497823E+04    0.45655E+00   -0.17064E+00   984   0.141E+00    0.282E+00
RMM:   4    -0.147921215779E+04    0.42820E-01   -0.36191E-01  1006   0.654E-01    0.145E+00
RMM:   5    -0.147920886054E+04    0.32973E-02   -0.39719E-02   969   0.243E-01    0.221E-01
RMM:   6    -0.147920808595E+04    0.77459E-03   -0.11837E-02  1004   0.108E-01    0.113E-01
RMM:   7    -0.147920787748E+04    0.20847E-03   -0.11224E-03   988   0.380E-02    0.584E-02
RMM:   8    -0.147920785431E+04    0.23171E-04   -0.34288E-04   976   0.183E-02    0.189E-02
RMM:   9    -0.147920784484E+04    0.94716E-05   -0.36059E-05   978   0.655E-03    0.513E-03
RMM:  10    -0.147920784439E+04    0.45194E-06   -0.57021E-06   841   0.259E-03
   5 F= -.14792078E+04 E0= -.14792078E+04  d E =-.547328E+01
       N       E                     dE             d eps       ncg     rms          rms(c)
DAV:   1    -0.147886705322E+04    0.34079E+00   -0.87009E+02  1006   0.454E+01    0.124E+01
RMM:   2    -0.148091085454E+04   -0.20438E+01   -0.30665E+01   966   0.757E+00    0.674E+00
RMM:   3    -0.148053849110E+04    0.37236E+00   -0.15675E+00   977   0.147E+00    0.476E+00
RMM:   4    -0.148035826356E+04    0.18023E+00   -0.10209E+00   982   0.110E+00    0.121E+00
RMM:   5    -0.148034692973E+04    0.11334E-01   -0.47193E-02   979   0.243E-01    0.568E-01
RMM:   6    -0.148034671703E+04    0.21270E-03   -0.12435E-02  1028   0.114E-01    0.232E-01
RMM:   7    -0.148034666876E+04    0.48272E-04   -0.64735E-03   977   0.720E-02    0.116E-01
RMM:   8    -0.148034624935E+04    0.41942E-03   -0.17826E-03   966   0.375E-02    0.338E-02
RMM:   9    -0.148034624188E+04    0.74627E-05   -0.11232E-04   990   0.120E-02    0.191E-02
RMM:  10    -0.148034624117E+04    0.71573E-06   -0.16738E-05   973   0.431E-03    0.456E-03
RMM:  11    -0.148034624768E+04   -0.65098E-05   -0.75801E-06   880   0.269E-03    0.331E-03
RMM:  12    -0.148034625385E+04   -0.61742E-05   -0.36235E-06   733   0.188E-03    0.340E-03
RMM:  13    -0.148034625606E+04   -0.22036E-05   -0.19682E-06   622   0.138E-03    0.993E-04
RMM:  14    -0.148034625644E+04   -0.38181E-06   -0.53775E-07   603   0.779E-04
   6 F= -.14803463E+04 E0= -.14803463E+04  d E =-.113841E+01
       N       E                     dE             d eps       ncg     rms          rms(c)
DAV:   1    -0.148246726521E+04   -0.21210E+01   -0.19522E+02   990   0.219E+01    0.489E+00
RMM:   2    -0.148274356015E+04   -0.27629E+00   -0.58328E+00   966   0.326E+00    0.264E+00
RMM:   3    -0.148265182696E+04    0.91733E-01   -0.48584E-01   969   0.799E-01    0.108E+00
RMM:   4    -0.148264156090E+04    0.10266E-01   -0.81686E-02  1022   0.330E-01    0.493E-01
RMM:   5    -0.148264035887E+04    0.12020E-02   -0.93877E-03   980   0.103E-01    0.208E-01
RMM:   6    -0.148264034624E+04    0.12632E-04   -0.12578E-03  1009   0.415E-02    0.989E-02
RMM:   7    -0.148264048483E+04   -0.13859E-03   -0.32160E-04   996   0.194E-02    0.256E-02
RMM:   8    -0.148264051194E+04   -0.27108E-04   -0.10310E-04   976   0.939E-03    0.118E-02
RMM:   9    -0.148264053543E+04   -0.23495E-04   -0.24612E-05   964   0.469E-03    0.328E-03
RMM:  10    -0.148264053899E+04   -0.35519E-05   -0.13584E-06   610   0.139E-03    0.188E-03
RMM:  11    -0.148264054777E+04   -0.87872E-05   -0.33102E-06   687   0.160E-03    0.217E-03
RMM:  12    -0.148264054768E+04    0.96610E-07   -0.25836E-07   602   0.647E-04
   7 F= -.14826405E+04 E0= -.14826405E+04  d E =-.343270E+01
       N       E                     dE             d eps       ncg     rms          rms(c)
DAV:   1    -0.148377568868E+04   -0.11351E+01   -0.22837E+02   990   0.235E+01    0.451E+00
RMM:   2    -0.148417079352E+04   -0.39510E+00   -0.64739E+00   966   0.344E+00    0.265E+00
RMM:   3    -0.148407759616E+04    0.93197E-01   -0.40248E-01   976   0.746E-01    0.152E+00
RMM:   4    -0.148405293808E+04    0.24658E-01   -0.18263E-01   991   0.462E-01    0.398E-01
RMM:   5    -0.148405106685E+04    0.18712E-02   -0.10635E-02   986   0.113E-01    0.160E-01
RMM:   6    -0.148405110691E+04   -0.40063E-04   -0.18473E-03  1061   0.467E-02    0.780E-02
RMM:   7    -0.148405105552E+04    0.51390E-04   -0.10105E-03   981   0.288E-02    0.360E-02
RMM:   8    -0.148405099448E+04    0.61042E-04   -0.18647E-04   970   0.126E-02    0.104E-02
RMM:   9    -0.148405099511E+04   -0.63106E-06   -0.30289E-05   991   0.560E-03    0.632E-03
RMM:  10    -0.148405099548E+04   -0.37462E-06   -0.70263E-06   877   0.255E-03
   8 F= -.14840510E+04 E0= -.14840510E+04  d E =-.141045E+01
       N       E                     dE             d eps       ncg     rms          rms(c)
DAV:   1    -0.148410174572E+04   -0.50751E-01   -0.62227E+00  1004   0.390E+00    0.734E-01
RMM:   2    -0.148411101951E+04   -0.92738E-02   -0.16892E-01   966   0.554E-01    0.416E-01
RMM:   3    -0.148410845845E+04    0.25611E-02   -0.12566E-02   968   0.130E-01    0.197E-01
RMM:   4    -0.148410811471E+04    0.34373E-03   -0.34816E-03   998   0.651E-02    0.655E-02
RMM:   5    -0.148410808340E+04    0.31316E-04   -0.29951E-04   990   0.184E-02    0.242E-02
RMM:   6    -0.148410808936E+04   -0.59569E-05   -0.33194E-05  1052   0.674E-03    0.120E-02
RMM:   7    -0.148410809336E+04   -0.40005E-05   -0.12533E-05   965   0.347E-03    0.372E-03
RMM:   8    -0.148410809354E+04   -0.18661E-06   -0.20182E-06   610   0.148E-03
   9 F= -.14841081E+04 E0= -.14841081E+04  d E =-.146755E+01
       N       E                     dE             d eps       ncg     rms          rms(c)
DAV:   1    -0.148520346781E+04   -0.10954E+01   -0.14559E+02   966   0.189E+01    0.341E+00
RMM:   2    -0.148542804262E+04   -0.22457E+00   -0.36470E+00   967   0.257E+00    0.184E+00
RMM:   3    -0.148538987028E+04    0.38172E-01   -0.27004E-01   988   0.605E-01    0.103E+00
RMM:   4    -0.148538245441E+04    0.74159E-02   -0.76107E-02   998   0.312E-01    0.321E-01
RMM:   5    -0.148538201479E+04    0.43962E-03   -0.47417E-03   986   0.791E-02    0.106E-01
RMM:   6    -0.148538209180E+04   -0.77010E-04   -0.69138E-04  1055   0.308E-02    0.384E-02
RMM:   7    -0.148538208330E+04    0.84986E-05   -0.27669E-04   986   0.158E-02    0.160E-02
RMM:   8    -0.148538207619E+04    0.71047E-05   -0.32660E-05   976   0.569E-03    0.555E-03
RMM:   9    -0.148538207742E+04   -0.12292E-05   -0.77069E-06   880   0.285E-03    0.325E-03
RMM:  10    -0.148538207720E+04    0.22596E-06   -0.12377E-06   603   0.126E-03
  10 F= -.14853821E+04 E0= -.14853821E+04  d E =-.127398E+01
       N       E                     dE             d eps       ncg     rms          rms(c)
DAV:   1    -0.148540307674E+04   -0.20999E-01   -0.38168E+00  1036   0.307E+00    0.511E-01
RMM:   2    -0.148540865616E+04   -0.55794E-02   -0.92923E-02   967   0.410E-01    0.301E-01
RMM:   3    -0.148540759313E+04    0.10630E-02   -0.73364E-03   981   0.991E-02    0.151E-01
RMM:   4    -0.148540748735E+04    0.10578E-03   -0.18705E-03   999   0.491E-02    0.473E-02
RMM:   5    -0.148540746905E+04    0.18300E-04   -0.15246E-04   983   0.135E-02    0.141E-02
RMM:   6    -0.148540747139E+04   -0.23372E-05   -0.15314E-05  1026   0.471E-03    0.579E-03
RMM:   7    -0.148540747173E+04   -0.34670E-06   -0.62178E-06   868   0.244E-03
  11 F= -.14854075E+04 E0= -.14854075E+04  d E =-.129938E+01
       N       E                     dE             d eps       ncg     rms          rms(c)
DAV:   1    -0.148616011324E+04   -0.75264E+00   -0.12951E+02   966   0.178E+01    0.300E+00
RMM:   2    -0.148635262078E+04   -0.19251E+00   -0.28423E+00   966   0.230E+00    0.166E+00
RMM:   3    -0.148632779042E+04    0.24830E-01   -0.18266E-01   982   0.513E-01    0.916E-01
RMM:   4    -0.148632194181E+04    0.58486E-02   -0.62206E-02   992   0.285E-01    0.236E-01
RMM:   5    -0.148632145627E+04    0.48554E-03   -0.36992E-03   978   0.682E-02    0.938E-02
RMM:   6    -0.148632154969E+04   -0.93413E-04   -0.58481E-04  1046   0.273E-02    0.372E-02
RMM:   7    -0.148632162948E+04   -0.79794E-04   -0.26820E-04   982   0.153E-02    0.160E-02
RMM:   8    -0.148632165786E+04   -0.28376E-04   -0.38039E-05   975   0.601E-03    0.624E-03
RMM:   9    -0.148632172423E+04   -0.66372E-04   -0.25294E-05   940   0.442E-03    0.414E-03
RMM:  10    -0.148632173550E+04   -0.11274E-04   -0.50221E-06   749   0.201E-03    0.229E-03
RMM:  11    -0.148632174749E+04   -0.11989E-04   -0.39673E-06   693   0.164E-03    0.123E-03
RMM:  12    -0.148632174849E+04   -0.10025E-05   -0.69171E-07   607   0.799E-04    0.583E-04
RMM:  13    -0.148632174900E+04   -0.50302E-06   -0.22773E-07   522   0.502E-04
  12 F= -.14863217E+04 E0= -.14863217E+04  d E =-.914277E+00
       N       E                     dE             d eps       ncg     rms          rms(c)
DAV:   1    -0.148633460463E+04   -0.12856E-01   -0.30198E+00  1012   0.272E+00    0.420E-01
RMM:   2    -0.148633867692E+04   -0.40723E-02   -0.62149E-02   966   0.340E-01    0.252E-01
RMM:   3    -0.148633805091E+04    0.62600E-03   -0.42872E-03   978   0.782E-02    0.124E-01
RMM:   4    -0.148633797407E+04    0.76844E-04   -0.12635E-03   996   0.408E-02    0.294E-02
RMM:   5    -0.148633796377E+04    0.10298E-04   -0.86235E-05   981   0.103E-02    0.108E-02
RMM:   6    -0.148633796582E+04   -0.20485E-05   -0.12623E-05  1017   0.400E-03    0.493E-03
RMM:   7    -0.148633796677E+04   -0.95403E-06   -0.43781E-06   774   0.209E-03
  13 F= -.14863380E+04 E0= -.14863380E+04  d E =-.930495E+00
       N       E                     dE             d eps       ncg     rms          rms(c)
DAV:   1    -0.148691457801E+04   -0.57661E+00   -0.10601E+02   982   0.160E+01    0.274E+00
RMM:   2    -0.148707225200E+04   -0.15767E+00   -0.23961E+00   966   0.208E+00    0.161E+00
RMM:   3    -0.148704526127E+04    0.26991E-01   -0.16614E-01   980   0.479E-01    0.844E-01
RMM:   4    -0.148704093568E+04    0.43256E-02   -0.56575E-02   992   0.271E-01    0.206E-01
RMM:   5    -0.148704037191E+04    0.56378E-03   -0.38739E-03   975   0.670E-02    0.794E-02
RMM:   6    -0.148704043439E+04   -0.62482E-04   -0.51873E-04  1056   0.253E-02    0.320E-02
RMM:   7    -0.148704044615E+04   -0.11756E-04   -0.25547E-04   984   0.147E-02    0.166E-02
RMM:   8    -0.148704044062E+04    0.55227E-05   -0.41262E-05   969   0.608E-03    0.481E-03
RMM:   9    -0.148704045003E+04   -0.94029E-05   -0.92304E-06   890   0.307E-03    0.302E-03
RMM:  10    -0.148704045204E+04   -0.20189E-05   -0.10847E-06   606   0.121E-03    0.135E-03
RMM:  11    -0.148704045585E+04   -0.38084E-05   -0.24168E-06   642   0.146E-03    0.163E-03
RMM:  12    -0.148704045608E+04   -0.22828E-06   -0.47564E-07   602   0.734E-04
  14 F= -.14870405E+04 E0= -.14870405E+04  d E =-.702489E+00
       N       E                     dE             d eps       ncg     rms          rms(c)
DAV:   1    -0.148704243616E+04   -0.19803E-02   -0.41702E-01  1052   0.100E+00    0.164E-01
RMM:   2    -0.148704303639E+04   -0.60023E-03   -0.92521E-03   967   0.129E-01    0.100E-01
RMM:   3    -0.148704293037E+04    0.10603E-03   -0.70462E-04   979   0.308E-02    0.486E-02
RMM:   4    -0.148704292068E+04    0.96851E-05   -0.19653E-04   993   0.160E-02    0.137E-02
RMM:   5    -0.148704291890E+04    0.17819E-05   -0.16577E-05   977   0.427E-03    0.484E-03
RMM:   6    -0.148704291918E+04   -0.27544E-06   -0.12888E-06   610   0.151E-03
  15 F= -.14870429E+04 E0= -.14870429E+04  d E =-.704952E+00
       N       E                     dE             d eps       ncg     rms          rms(c)
DAV:   1    -0.148753564251E+04   -0.49272E+00   -0.71987E+01   966   0.133E+01    0.226E+00
RMM:   2    -0.148763439766E+04   -0.98755E-01   -0.15844E+00   966   0.170E+00    0.138E+00
RMM:   3    -0.148761606797E+04    0.18330E-01   -0.12658E-01   989   0.412E-01    0.693E-01
RMM:   4    -0.148761354308E+04    0.25249E-02   -0.30682E-02   995   0.202E-01    0.193E-01
RMM:   5    -0.148761317417E+04    0.36890E-03   -0.28544E-03   978   0.562E-02    0.621E-02
RMM:   6    -0.148761318185E+04   -0.76731E-05   -0.26548E-04  1040   0.192E-02    0.275E-02
RMM:   7    -0.148761317663E+04    0.52179E-05   -0.15675E-04   977   0.116E-02    0.119E-02
RMM:   8    -0.148761317134E+04    0.52875E-05   -0.23831E-05   970   0.463E-03    0.411E-03
RMM:   9    -0.148761317270E+04   -0.13622E-05   -0.33492E-06   714   0.209E-03    0.179E-03
RMM:  10    -0.148761317286E+04   -0.15479E-06   -0.60270E-07   602   0.961E-04
  16 F= -.14876132E+04 E0= -.14876132E+04  d E =-.570254E+00
       N       E                     dE             d eps       ncg     rms          rms(c)
DAV:   1    -0.148762241950E+04   -0.92468E-02   -0.18881E+00  1036   0.215E+00    0.362E-01
RMM:   2    -0.148762489588E+04   -0.24764E-02   -0.40384E-02   966   0.272E-01    0.222E-01
RMM:   3    -0.148762441191E+04    0.48397E-03   -0.33970E-03   987   0.674E-02    0.101E-01
RMM:   4    -0.148762436831E+04    0.43595E-04   -0.71641E-04   999   0.310E-02    0.282E-02
RMM:   5    -0.148762435579E+04    0.12526E-04   -0.82857E-05   977   0.933E-03    0.885E-03
RMM:   6    -0.148762435516E+04    0.62837E-06   -0.56253E-06   770   0.302E-03
  17 F= -.14876244E+04 E0= -.14876244E+04  d E =-.581436E+00
       N       E                     dE             d eps       ncg     rms          rms(c)
DAV:   1    -0.148799735354E+04   -0.37300E+00   -0.76835E+01   966   0.136E+01    0.227E+00
RMM:   2    -0.148808643355E+04   -0.89080E-01   -0.14856E+00   966   0.165E+00    0.138E+00
RMM:   3    -0.148806926268E+04    0.17171E-01   -0.12066E-01   988   0.403E-01    0.667E-01
RMM:   4    -0.148806700912E+04    0.22536E-02   -0.28398E-02   995   0.196E-01    0.162E-01
RMM:   5    -0.148806677367E+04    0.23545E-03   -0.22144E-03   988   0.515E-02    0.592E-02
RMM:   6    -0.148806679247E+04   -0.18797E-04   -0.27590E-04  1055   0.193E-02    0.266E-02
RMM:   7    -0.148806678610E+04    0.63703E-05   -0.11526E-04   981   0.102E-02    0.101E-02
RMM:   8    -0.148806678364E+04    0.24606E-05   -0.17595E-05   969   0.413E-03    0.387E-03
RMM:   9    -0.148806678415E+04   -0.51462E-06   -0.22467E-06   608   0.182E-03
  18 F= -.14880668E+04 E0= -.14880668E+04  d E =-.442429E+00
       N       E                     dE             d eps       ncg     rms          rms(c)
DAV:   1    -0.148806832701E+04   -0.15434E-02   -0.37096E-01  1068   0.947E-01    0.157E-01
RMM:   2    -0.148806873514E+04   -0.40813E-03   -0.70721E-03   966   0.114E-01    0.948E-02
RMM:   3    -0.148806864948E+04    0.85660E-04   -0.60421E-04   989   0.284E-02    0.429E-02
RMM:   4    -0.148806863826E+04    0.11220E-04   -0.12196E-04   999   0.129E-02    0.105E-02
RMM:   5    -0.148806863710E+04    0.11631E-05   -0.10124E-05   983   0.346E-03    0.384E-03
RMM:   6    -0.148806863689E+04    0.20611E-06   -0.94758E-07   602   0.131E-03
  19 F= -.14880686E+04 E0= -.14880686E+04  d E =-.444282E+00
       N       E                     dE             d eps       ncg     rms          rms(c)
DAV:   1    -0.148834193927E+04   -0.27330E+00   -0.81937E+01   974   0.140E+01    0.225E+00
RMM:   2    -0.148844266875E+04   -0.10073E+00   -0.15759E+00   967   0.169E+00    0.135E+00
RMM:   3    -0.148842530649E+04    0.17362E-01   -0.11876E-01   989   0.395E-01    0.675E-01
RMM:   4    -0.148842295401E+04    0.23525E-02   -0.32054E-02   991   0.206E-01    0.161E-01
RMM:   5    -0.148842263231E+04    0.32169E-03   -0.23751E-03   980   0.528E-02    0.596E-02
RMM:   6    -0.148842266640E+04   -0.34092E-04   -0.34253E-04  1056   0.207E-02    0.259E-02
RMM:   7    -0.148842266633E+04    0.78981E-07   -0.16260E-04   986   0.117E-02    0.123E-02
RMM:   8    -0.148842266208E+04    0.42422E-05   -0.23343E-05   970   0.467E-03    0.363E-03
RMM:   9    -0.148842266445E+04   -0.23637E-05   -0.52771E-06   815   0.236E-03    0.262E-03
RMM:  10    -0.148842266467E+04   -0.21801E-06   -0.10084E-06   604   0.113E-03
  20 F= -.14884227E+04 E0= -.14884227E+04  d E =-.354028E+00
       N       E                     dE             d eps       ncg     rms          rms(c)
DAV:   1    -0.148842266590E+04   -0.14535E-05   -0.96983E-05  1097   0.152E-02    0.267E-03
RMM:   2    -0.148842266603E+04   -0.12513E-06   -0.18807E-06   616   0.192E-03
  21 F= -.14884227E+04 E0= -.14884227E+04  d E =-.354029E+00
       N       E                     dE             d eps       ncg     rms          rms(c)
DAV:   1    -0.148863851073E+04   -0.21584E+00   -0.42261E+01   966   0.101E+01    0.177E+00
RMM:   2    -0.148868467423E+04   -0.46164E-01   -0.82196E-01   966   0.123E+00    0.102E+00
RMM:   3    -0.148867432611E+04    0.10348E-01   -0.72270E-02   993   0.309E-01    0.475E-01
RMM:   4    -0.148867310589E+04    0.12202E-02   -0.13084E-02  1001   0.133E-01    0.138E-01
RMM:   5    -0.148867298752E+04    0.11837E-03   -0.13254E-03   988   0.389E-02    0.433E-02
RMM:   6    -0.148867299831E+04   -0.10784E-04   -0.12010E-04  1063   0.131E-02    0.201E-02
RMM:   7    -0.148867299936E+04   -0.10573E-05   -0.62067E-05   978   0.756E-03    0.702E-03
RMM:   8    -0.148867299739E+04    0.19717E-05   -0.10005E-05   945   0.303E-03    0.319E-03
RMM:   9    -0.148867299722E+04    0.16986E-06   -0.93231E-07   603   0.122E-03
  22 F= -.14886730E+04 E0= -.14886730E+04  d E =-.250331E+00
       N       E                     dE             d eps       ncg     rms          rms(c)
DAV:   1    -0.148867391325E+04   -0.91586E-03   -0.22317E-01  1076   0.736E-01    0.125E-01
RMM:   2    -0.148867416300E+04   -0.24975E-03   -0.42943E-03   966   0.889E-02    0.751E-02
RMM:   3    -0.148867411179E+04    0.51207E-04   -0.39000E-04   994   0.226E-02    0.328E-02
RMM:   4    -0.148867410950E+04    0.22882E-05   -0.65370E-05  1002   0.942E-03    0.941E-03
RMM:   5    -0.148867410917E+04    0.33091E-06   -0.78587E-06   954   0.294E-03
  23 F= -.14886741E+04 E0= -.14886741E+04  d E =-.251443E+00
       N       E                     dE             d eps       ncg     rms          rms(c)
DAV:   1    -0.148883244883E+04   -0.15834E+00   -0.31022E+01   966   0.865E+00    0.151E+00
RMM:   2    -0.148886864886E+04   -0.36200E-01   -0.62212E-01   966   0.107E+00    0.914E-01
RMM:   3    -0.148886030043E+04    0.83484E-02   -0.51883E-02   993   0.263E-01    0.424E-01
RMM:   4    -0.148885931289E+04    0.98754E-03   -0.10531E-02  1000   0.118E-01    0.111E-01
RMM:   5    -0.148885920178E+04    0.11111E-03   -0.10451E-03   986   0.341E-02    0.344E-02
RMM:   6    -0.148885920865E+04   -0.68648E-05   -0.90034E-05  1058   0.112E-02    0.161E-02
RMM:   7    -0.148885920999E+04   -0.13464E-05   -0.52424E-05   976   0.690E-03    0.653E-03
RMM:   8    -0.148885920917E+04    0.82256E-06   -0.70175E-06   900   0.260E-03
  24 F= -.14888592E+04 E0= -.14888592E+04  d E =-.185100E+00
       N       E                     dE             d eps       ncg     rms          rms(c)
DAV:   1    -0.148885942836E+04   -0.21837E-03   -0.48023E-02  1108   0.340E-01    0.581E-02
RMM:   2    -0.148885948240E+04   -0.54031E-04   -0.93380E-04   966   0.415E-02    0.358E-02
RMM:   3    -0.148885946985E+04    0.12546E-04   -0.83310E-05   992   0.105E-02    0.154E-02
RMM:   4    -0.148885946920E+04    0.64530E-06   -0.14709E-05   980   0.445E-03    0.418E-03
RMM:   5    -0.148885946931E+04   -0.11003E-06   -0.15704E-06   605   0.146E-03
  25 F= -.14888595E+04 E0= -.14888595E+04  d E =-.185360E+00
       N       E                     dE             d eps       ncg     rms          rms(c)
DAV:   1    -0.148901240842E+04   -0.15294E+00   -0.29831E+01   966   0.841E+00    0.141E+00
RMM:   2    -0.148904456685E+04   -0.32158E-01   -0.56044E-01   966   0.102E+00    0.874E-01
RMM:   3    -0.148903642334E+04    0.81435E-02   -0.47882E-02   985   0.248E-01    0.380E-01
RMM:   4    -0.148903587095E+04    0.55239E-03   -0.95765E-03   998   0.111E-01    0.989E-02
RMM:   5    -0.148903574997E+04    0.12098E-03   -0.11148E-03   978   0.342E-02    0.308E-02
RMM:   6    -0.148903574979E+04    0.18047E-06   -0.80264E-05  1047   0.107E-02    0.142E-02
RMM:   7    -0.148903574930E+04    0.48846E-06   -0.40289E-05   985   0.609E-03    0.579E-03
RMM:   8    -0.148903574862E+04    0.67847E-06   -0.62940E-06   868   0.239E-03
  26 F= -.14890357E+04 E0= -.14890357E+04  d E =-.176279E+00
       N       E                     dE             d eps       ncg     rms          rms(c)
DAV:   1    -0.148903864869E+04   -0.28994E-02   -0.79560E-01  1036   0.137E+00    0.230E-01
RMM:   2    -0.148903948054E+04   -0.83186E-03   -0.14732E-02   966   0.165E-01    0.141E-01
RMM:   3    -0.148903926097E+04    0.21957E-03   -0.12805E-03   984   0.405E-02    0.600E-02
RMM:   4    -0.148903924679E+04    0.14173E-04   -0.25033E-04   998   0.180E-02    0.159E-02
RMM:   5    -0.148903924395E+04    0.28460E-05   -0.30799E-05   977   0.565E-03    0.518E-03
RMM:   6    -0.148903924385E+04    0.10153E-06   -0.16372E-06   618   0.176E-03
  27 F= -.14890392E+04 E0= -.14890392E+04  d E =-.179775E+00
       N       E                     dE             d eps       ncg     rms          rms(c)
DAV:   1    -0.148917563129E+04   -0.13639E+00   -0.29020E+01   966   0.828E+00    0.143E+00
RMM:   2    -0.148920645466E+04   -0.30823E-01   -0.53915E-01   966   0.101E+00    0.873E-01
RMM:   3    -0.148919835007E+04    0.81046E-02   -0.46604E-02   985   0.245E-01    0.369E-01
RMM:   4    -0.148919780898E+04    0.54109E-03   -0.88932E-03  1000   0.108E-01    0.972E-02
RMM:   5    -0.148919767444E+04    0.13454E-03   -0.11237E-03   979   0.342E-02    0.311E-02
RMM:   6    -0.148919767050E+04    0.39392E-05   -0.78272E-05  1048   0.106E-02    0.157E-02
RMM:   7    -0.148919766898E+04    0.15222E-05   -0.47292E-05   983   0.658E-03    0.605E-03
RMM:   8    -0.148919766752E+04    0.14566E-05   -0.66389E-06   883   0.245E-03    0.242E-03
RMM:   9    -0.148919766752E+04   -0.22774E-08   -0.86718E-07   602   0.117E-03
  28 F= -.14891977E+04 E0= -.14891977E+04  d E =-.158424E+00
       N       E                     dE             d eps       ncg     rms          rms(c)
DAV:   1    -0.148919969710E+04   -0.20296E-02   -0.57422E-01  1020   0.116E+00    0.199E-01
RMM:   2    -0.148920030544E+04   -0.60834E-03   -0.10689E-02   966   0.142E-01    0.123E-01
RMM:   3    -0.148920014142E+04    0.16402E-03   -0.94761E-04   988   0.348E-02    0.498E-02
RMM:   4    -0.148920013148E+04    0.99411E-05   -0.16474E-04  1002   0.148E-02    0.133E-02
RMM:   5    -0.148920012850E+04    0.29777E-05   -0.22866E-05   977   0.484E-03    0.415E-03
RMM:   6    -0.148920012829E+04    0.21058E-06   -0.11331E-06   605   0.149E-03
  29 F= -.14892001E+04 E0= -.14892001E+04  d E =-.160884E+00
       N       E                     dE             d eps       ncg     rms          rms(c)
DAV:   1    -0.148932228883E+04   -0.12216E+00   -0.26043E+01   966   0.786E+00    0.138E+00
RMM:   2    -0.148934941845E+04   -0.27130E-01   -0.47736E-01   966   0.944E-01    0.857E-01
RMM:   3    -0.148934233459E+04    0.70839E-02   -0.42425E-02   989   0.234E-01    0.340E-01
RMM:   4    -0.148934193018E+04    0.40441E-03   -0.67259E-03  1004   0.954E-02    0.900E-02
RMM:   5    -0.148934184229E+04    0.87884E-04   -0.93221E-04   988   0.309E-02    0.298E-02
RMM:   6    -0.148934183850E+04    0.37885E-05   -0.64330E-05  1049   0.961E-03    0.130E-02
RMM:   7    -0.148934183829E+04    0.21051E-06   -0.24287E-05   975   0.489E-03    0.432E-03
RMM:   8    -0.148934183804E+04    0.25463E-06   -0.27500E-06   637   0.179E-03
  30 F= -.14893418E+04 E0= -.14893418E+04  d E =-.141710E+00
       N       E                     dE             d eps       ncg     rms          rms(c)
DAV:   1    -0.148934355352E+04   -0.17152E-02   -0.47547E-01  1036   0.106E+00    0.186E-01
RMM:   2    -0.148934404055E+04   -0.48702E-03   -0.86437E-03   966   0.127E-01    0.116E-01
RMM:   3    -0.148934390931E+04    0.13124E-03   -0.79098E-04   990   0.319E-02    0.439E-02
RMM:   4    -0.148934390275E+04    0.65597E-05   -0.11575E-04  1006   0.126E-02    0.117E-02
RMM:   5    -0.148934390123E+04    0.15225E-05   -0.17642E-05   983   0.422E-03    0.384E-03
RMM:   6    -0.148934390111E+04    0.11527E-06   -0.90613E-07   604   0.132E-03
  31 F= -.14893439E+04 E0= -.14893439E+04  d E =-.143773E+00
       N       E                     dE             d eps       ncg     rms          rms(c)
DAV:   1    -0.148946069216E+04   -0.11679E+00   -0.25953E+01   966   0.778E+00    0.138E+00
RMM:   2    -0.148948599716E+04   -0.25305E-01   -0.46177E-01   966   0.926E-01    0.848E-01
RMM:   3    -0.148947880745E+04    0.71897E-02   -0.41006E-02   984   0.231E-01    0.329E-01
RMM:   4    -0.148947844324E+04    0.36421E-03   -0.63933E-03  1000   0.930E-02    0.899E-02
RMM:   5    -0.148947837991E+04    0.63328E-04   -0.86690E-04   986   0.299E-02    0.292E-02
RMM:   6    -0.148947837678E+04    0.31296E-05   -0.68939E-05  1047   0.967E-03    0.109E-02
RMM:   7    -0.148947837766E+04   -0.88089E-06   -0.17965E-05   989   0.425E-03    0.413E-03
RMM:   8    -0.148947837758E+04    0.87530E-07   -0.31733E-06   670   0.182E-03
  32 F= -.14894784E+04 E0= -.14894784E+04  d E =-.134476E+00
       N       E                     dE             d eps       ncg     rms          rms(c)
DAV:   1    -0.148948177070E+04   -0.33930E-02   -0.11782E+00  1004   0.166E+00    0.290E-01
RMM:   2    -0.148948289834E+04   -0.11276E-02   -0.20626E-02   966   0.196E-01    0.180E-01
RMM:   3    -0.148948257120E+04    0.32714E-03   -0.18761E-03   984   0.494E-02    0.663E-02
RMM:   4    -0.148948255950E+04    0.11700E-04   -0.27923E-04  1005   0.195E-02    0.179E-02
RMM:   5    -0.148948255725E+04    0.22527E-05   -0.41178E-05   983   0.646E-03    0.599E-03
RMM:   6    -0.148948255724E+04    0.88476E-08   -0.25990E-06   656   0.207E-03
  33 F= -.14894826E+04 E0= -.14894826E+04  d E =-.138656E+00
       N       E                     dE             d eps       ncg     rms          rms(c)
DAV:   1    -0.148958975703E+04   -0.10720E+00   -0.28692E+01   966   0.814E+00    0.143E+00
RMM:   2    -0.148961359967E+04   -0.23843E-01   -0.49083E-01   966   0.955E-01    0.870E-01
RMM:   3    -0.148960522412E+04    0.83755E-02   -0.47449E-02   981   0.246E-01    0.327E-01
RMM:   4    -0.148960492511E+04    0.29901E-03   -0.71662E-03  1011   0.963E-02    0.104E-01
RMM:   5    -0.148960486600E+04    0.59109E-04   -0.94163E-04   976   0.319E-02    0.313E-02
RMM:   6    -0.148960486275E+04    0.32478E-05   -0.84556E-05  1042   0.105E-02    0.124E-02
RMM:   7    -0.148960486522E+04   -0.24700E-05   -0.19119E-05  1005   0.448E-03    0.474E-03
RMM:   8    -0.148960486498E+04    0.24223E-06   -0.57685E-06   840   0.224E-03
  34 F= -.14896049E+04 E0= -.14896049E+04  d E =-.122308E+00
       N       E                     dE             d eps       ncg     rms          rms(c)
DAV:   1    -0.148960639718E+04   -0.15320E-02   -0.56223E-01  1020   0.114E+00    0.196E-01
RMM:   2    -0.148960686677E+04   -0.46959E-03   -0.95291E-03   966   0.133E-01    0.122E-01
RMM:   3    -0.148960670136E+04    0.16541E-03   -0.96048E-04   979   0.349E-02    0.419E-02
RMM:   4    -0.148960670028E+04    0.10817E-05   -0.13217E-04  1018   0.130E-02    0.131E-02
RMM:   5    -0.148960669961E+04    0.67086E-06   -0.20840E-05   971   0.465E-03    0.403E-03
RMM:   6    -0.148960669981E+04   -0.20122E-06   -0.13742E-06   608   0.150E-03
  35 F= -.14896067E+04 E0= -.14896067E+04  d E =-.124143E+00
       N       E                     dE             d eps       ncg     rms          rms(c)
DAV:   1    -0.148969788480E+04   -0.91185E-01   -0.24398E+01   966   0.757E+00    0.137E+00
RMM:   2    -0.148971880155E+04   -0.20917E-01   -0.41893E-01   966   0.882E-01    0.832E-01
RMM:   3    -0.148971196352E+04    0.68380E-02   -0.40987E-02   988   0.228E-01    0.310E-01
RMM:   4    -0.148971167934E+04    0.28418E-03   -0.56295E-03  1012   0.865E-02    0.928E-02
RMM:   5    -0.148971161628E+04    0.63052E-04   -0.90294E-04   981   0.300E-02    0.287E-02
RMM:   6    -0.148971161134E+04    0.49414E-05   -0.71107E-05  1031   0.956E-03    0.111E-02
RMM:   7    -0.148971161344E+04   -0.20951E-05   -0.17642E-05  1000   0.427E-03    0.441E-03
RMM:   8    -0.148971161307E+04    0.36383E-06   -0.55157E-06   838   0.219E-03
  36 F= -.14897116E+04 E0= -.14897116E+04  d E =-.104913E+00
       N       E                     dE             d eps       ncg     rms          rms(c)
DAV:   1    -0.148971185564E+04   -0.24220E-03   -0.76286E-02  1092   0.423E-01    0.758E-02
RMM:   2    -0.148971191951E+04   -0.63876E-04   -0.12852E-03   966   0.489E-02    0.465E-02
RMM:   3    -0.148971189827E+04    0.21239E-04   -0.12980E-04   985   0.129E-02    0.162E-02
RMM:   4    -0.148971189799E+04    0.28258E-06   -0.17205E-05  1001   0.478E-03    0.486E-03
RMM:   5    -0.148971189803E+04   -0.39785E-07   -0.26108E-06   638   0.176E-03
  37 F= -.14897119E+04 E0= -.14897119E+04  d E =-.105198E+00
       N       E                     dE             d eps       ncg     rms          rms(c)
DAV:   1    -0.148979012405E+04   -0.78226E-01   -0.20632E+01   966   0.695E+00    0.124E+00
RMM:   2    -0.148980924222E+04   -0.19118E-01   -0.35892E-01   966   0.818E-01    0.758E-01
RMM:   3    -0.148980342837E+04    0.58138E-02   -0.33745E-02   986   0.209E-01    0.287E-01
RMM:   4    -0.148980315144E+04    0.27694E-03   -0.48441E-03  1009   0.813E-02    0.793E-02
RMM:   5    -0.148980308769E+04    0.63750E-04   -0.71499E-04   981   0.268E-02    0.247E-02
RMM:   6    -0.148980308383E+04    0.38558E-05   -0.53999E-05  1050   0.845E-03    0.923E-03
RMM:   7    -0.148980308441E+04   -0.57516E-06   -0.14982E-05   979   0.387E-03    0.383E-03
RMM:   8    -0.148980308426E+04    0.14859E-06   -0.35628E-06   711   0.185E-03
  38 F= -.14898031E+04 E0= -.14898031E+04  d E =-.911862E-01
       N       E                     dE             d eps       ncg     rms          rms(c)
DAV:   1    -0.148980393915E+04   -0.85475E-03   -0.28748E-01  1052   0.820E-01    0.145E-01
RMM:   2    -0.148980419887E+04   -0.25972E-03   -0.49243E-03   966   0.959E-02    0.892E-02
RMM:   3    -0.148980411711E+04    0.81763E-04   -0.47186E-04   986   0.247E-02    0.326E-02
RMM:   4    -0.148980411394E+04    0.31657E-05   -0.65731E-05  1009   0.948E-03    0.882E-03
RMM:   5    -0.148980411343E+04    0.51476E-06   -0.10260E-05   966   0.319E-03    0.280E-03
RMM:   6    -0.148980411343E+04   -0.20082E-08   -0.56895E-07   602   0.102E-03
  39 F= -.14898041E+04 E0= -.14898041E+04  d E =-.922154E-01
       N       E                     dE             d eps       ncg     rms          rms(c)
DAV:   1    -0.148986479574E+04   -0.60682E-01   -0.21266E+01   966   0.703E+00    0.120E+00
RMM:   2    -0.148988549911E+04   -0.20703E-01   -0.36743E-01   966   0.823E-01    0.743E-01
RMM:   3    -0.148987967778E+04    0.58213E-02   -0.33181E-02   985   0.207E-01    0.282E-01
RMM:   4    -0.148987941433E+04    0.26346E-03   -0.52185E-03  1003   0.838E-02    0.749E-02
RMM:   5    -0.148987935429E+04    0.60034E-04   -0.68661E-04   980   0.264E-02    0.243E-02
RMM:   6    -0.148987935129E+04    0.30059E-05   -0.53723E-05  1058   0.839E-03    0.896E-03
RMM:   7    -0.148987935179E+04   -0.49987E-06   -0.13090E-05   970   0.368E-03    0.345E-03
RMM:   8    -0.148987935166E+04    0.12186E-06   -0.23912E-06   629   0.160E-03
  40 F= -.14898794E+04 E0= -.14898794E+04  d E =-.752382E-01
       N       E                     dE             d eps       ncg     rms          rms(c)
DAV:   1    -0.148987936698E+04   -0.15192E-04   -0.56374E-03  1156   0.114E-01    0.193E-02
RMM:   2    -0.148987937215E+04   -0.51751E-05   -0.94811E-05   966   0.132E-02    0.120E-02
RMM:   3    -0.148987937053E+04    0.16211E-05   -0.90257E-06   953   0.341E-03    0.422E-03
RMM:   4    -0.148987937045E+04    0.79264E-07   -0.10419E-06   604   0.134E-03
  41 F= -.14898794E+04 E0= -.14898794E+04  d E =-.752570E-01
       N       E                     dE             d eps       ncg     rms          rms(c)
DAV:   1    -0.148993991953E+04   -0.60549E-01   -0.15689E+01   966   0.608E+00    0.109E+00
RMM:   2    -0.148995301766E+04   -0.13098E-01   -0.25884E-01   966   0.695E-01    0.663E-01
RMM:   3    -0.148994874326E+04    0.42744E-02   -0.25321E-02   991   0.180E-01    0.241E-01
RMM:   4    -0.148994857129E+04    0.17197E-03   -0.33620E-03  1007   0.681E-02    0.648E-02
RMM:   5    -0.148994852163E+04    0.49660E-04   -0.55694E-04   985   0.236E-02    0.214E-02
RMM:   6    -0.148994851821E+04    0.34124E-05   -0.41350E-05  1044   0.739E-03    0.817E-03
RMM:   7    -0.148994851880E+04   -0.58237E-06   -0.10219E-05   961   0.326E-03    0.320E-03
RMM:   8    -0.148994851864E+04    0.15516E-06   -0.22558E-06   628   0.153E-03
  42 F= -.14899485E+04 E0= -.14899485E+04  d E =-.691482E-01
       N       E                     dE             d eps       ncg     rms          rms(c)
DAV:   1    -0.148994896204E+04   -0.44325E-03   -0.14283E-01  1068   0.580E-01    0.104E-01
RMM:   2    -0.148994907967E+04   -0.11763E-03   -0.23447E-03   966   0.661E-02    0.632E-02
RMM:   3    -0.148994904007E+04    0.39595E-04   -0.23209E-04   991   0.172E-02    0.225E-02
RMM:   4    -0.148994903836E+04    0.17108E-05   -0.29795E-05  1006   0.642E-03    0.610E-03
RMM:   5    -0.148994903800E+04    0.35987E-06   -0.46661E-06   782   0.224E-03
  43 F= -.14899490E+04 E0= -.14899490E+04  d E =-.696676E-01
       N       E                     dE             d eps       ncg     rms          rms(c)
DAV:   1    -0.148999534727E+04   -0.46309E-01   -0.13894E+01   966   0.572E+00    0.995E-01
RMM:   2    -0.149000836341E+04   -0.13016E-01   -0.23512E-01   966   0.662E-01    0.608E-01
RMM:   3    -0.149000497798E+04    0.33854E-02   -0.21606E-02   990   0.168E-01    0.232E-01
RMM:   4    -0.149000480675E+04    0.17123E-03   -0.31271E-03  1007   0.656E-02    0.576E-02
RMM:   5    -0.149000476819E+04    0.38555E-04   -0.40384E-04   978   0.205E-02    0.189E-02
RMM:   6    -0.149000476797E+04    0.22188E-06   -0.33397E-05  1062   0.665E-03    0.740E-03
RMM:   7    -0.149000476822E+04   -0.25113E-06   -0.83212E-06   922   0.291E-03
  44 F= -.14900048E+04 E0= -.14900048E+04  d E =-.557302E-01
       N       E                     dE             d eps       ncg     rms          rms(c)
DAV:   1    -0.149000491461E+04   -0.14664E-03   -0.50993E-02  1100   0.346E-01    0.601E-02
RMM:   2    -0.149000496277E+04   -0.48162E-04   -0.87772E-04   966   0.405E-02    0.369E-02
RMM:   3    -0.149000494985E+04    0.12921E-04   -0.82558E-05   990   0.103E-02    0.140E-02
RMM:   4    -0.149000494935E+04    0.49983E-06   -0.11753E-05   978   0.405E-03    0.347E-03
RMM:   5    -0.149000494934E+04    0.13009E-07   -0.14244E-06   603   0.138E-03
  45 F= -.14900049E+04 E0= -.14900049E+04  d E =-.559113E-01
       N       E                     dE             d eps       ncg     rms          rms(c)
DAV:   1    -0.149004377638E+04   -0.38827E-01   -0.15006E+01   966   0.592E+00    0.103E+00
RMM:   2    -0.149005770331E+04   -0.13927E-01   -0.25954E-01   966   0.690E-01    0.623E-01
RMM:   3    -0.149005387514E+04    0.38282E-02   -0.24273E-02   987   0.176E-01    0.242E-01
RMM:   4    -0.149005369372E+04    0.18141E-03   -0.37027E-03  1006   0.707E-02    0.643E-02
RMM:   5    -0.149005365596E+04    0.37762E-04   -0.43096E-04   982   0.213E-02    0.195E-02
RMM:   6    -0.149005365639E+04   -0.43376E-06   -0.35365E-05  1067   0.683E-03    0.721E-03
RMM:   7    -0.149005365659E+04   -0.19460E-06   -0.81713E-06   931   0.292E-03
  46 F= -.14900537E+04 E0= -.14900537E+04  d E =-.487073E-01
       N       E                     dE             d eps       ncg     rms          rms(c)
DAV:   1    -0.149005365665E+04   -0.25357E-06   -0.11480E-04  1081   0.165E-02    0.305E-03
RMM:   2    -0.149005365671E+04   -0.57036E-07   -0.17589E-06   622   0.195E-03
  47 F= -.14900537E+04 E0= -.14900537E+04  d E =-.487074E-01
       N       E                     dE             d eps       ncg     rms          rms(c)
DAV:   1    -0.149008434987E+04   -0.30693E-01   -0.87031E+00   966   0.455E+00    0.800E-01
RMM:   2    -0.149009231031E+04   -0.79604E-02   -0.15036E-01   966   0.530E-01    0.485E-01
RMM:   3    -0.149009013867E+04    0.21716E-02   -0.14542E-02   993   0.136E-01    0.188E-01
RMM:   4    -0.149009001837E+04    0.12031E-03   -0.19730E-03  1008   0.521E-02    0.496E-02
RMM:   5    -0.149008998865E+04    0.29711E-04   -0.28342E-04   983   0.172E-02    0.155E-02
RMM:   6    -0.149008998828E+04    0.37729E-06   -0.21301E-05  1046   0.538E-03    0.608E-03
RMM:   7    -0.149008998849E+04   -0.21199E-06   -0.62626E-06   890   0.257E-03
  48 F= -.14900900E+04 E0= -.14900900E+04  d E =-.363318E-01
       N       E                     dE             d eps       ncg     rms          rms(c)
DAV:   1    -0.149009000466E+04   -0.16387E-04   -0.49606E-03  1164   0.109E-01    0.192E-02
RMM:   2    -0.149009000961E+04   -0.49440E-05   -0.91520E-05   966   0.131E-02    0.117E-02
RMM:   3    -0.149009000841E+04    0.12024E-05   -0.91804E-06   981   0.340E-03    0.467E-03
RMM:   4    -0.149009000835E+04    0.55406E-07   -0.10591E-06   602   0.135E-03
  49 F= -.14900900E+04 E0= -.14900900E+04  d E =-.363516E-01
       N       E                     dE             d eps       ncg     rms          rms(c)
DAV:   1    -0.149011312083E+04   -0.23112E-01   -0.73498E+00   966   0.417E+00    0.718E-01
RMM:   2    -0.149012012278E+04   -0.70020E-02   -0.12706E-01   966   0.488E-01    0.436E-01
RMM:   3    -0.149011826162E+04    0.18612E-02   -0.11734E-02   991   0.123E-01    0.175E-01
RMM:   4    -0.149011815527E+04    0.10634E-03   -0.18996E-03  1002   0.504E-02    0.436E-02
RMM:   5    -0.149011812913E+04    0.26148E-04   -0.22500E-04   980   0.155E-02    0.140E-02
RMM:   6    -0.149011812909E+04    0.31621E-07   -0.18223E-05  1043   0.496E-03    0.618E-03
RMM:   7    -0.149011812888E+04    0.21678E-06   -0.63841E-06   888   0.253E-03
  50 F= -.14901181E+04 E0= -.14901181E+04  d E =-.281205E-01
       N       E                     dE             d eps       ncg     rms          rms(c)
DAV:   1    -0.149011812996E+04   -0.86057E-06   -0.40417E-04  1105   0.310E-02    0.538E-03
RMM:   2    -0.149011813035E+04   -0.39217E-06   -0.60180E-06   845   0.343E-03
  51 F= -.14901181E+04 E0= -.14901181E+04  d E =-.281220E-01
       N       E                     dE             d eps       ncg     rms          rms(c)
DAV:   1    -0.149013546145E+04   -0.17331E-01   -0.52409E+00   966   0.352E+00    0.593E-01
RMM:   2    -0.149014059886E+04   -0.51374E-02   -0.92424E-02   966   0.414E-01    0.365E-01
RMM:   3    -0.149013918490E+04    0.14140E-02   -0.83640E-03   985   0.104E-01    0.146E-01
RMM:   4    -0.149013911894E+04    0.65956E-04   -0.14601E-03  1001   0.440E-02    0.383E-02
RMM:   5    -0.149013909902E+04    0.19929E-04   -0.17945E-04   978   0.137E-02    0.119E-02
RMM:   6    -0.149013909822E+04    0.79496E-06   -0.12840E-05  1018   0.421E-03    0.529E-03
RMM:   7    -0.149013909792E+04    0.29911E-06   -0.58439E-06   854   0.240E-03
  52 F= -.14901391E+04 E0= -.14901391E+04  d E =-.209676E-01
       N       E                     dE             d eps       ncg     rms          rms(c)
DAV:   1    -0.149013910020E+04   -0.19801E-05   -0.63096E-04  1164   0.386E-02    0.666E-03
RMM:   2    -0.149013910092E+04   -0.71625E-06   -0.13591E-05   966   0.503E-03    0.415E-03
RMM:   3    -0.149013910065E+04    0.26962E-06   -0.97159E-07   595   0.125E-03
  53 F= -.14901391E+04 E0= -.14901391E+04  d E =-.209703E-01
       N       E                     dE             d eps       ncg     rms          rms(c)
DAV:   1    -0.149015284951E+04   -0.13749E-01   -0.36290E+00   966   0.295E+00    0.509E-01
RMM:   2    -0.149015642581E+04   -0.35763E-02   -0.64443E-02   966   0.349E-01    0.309E-01
RMM:   3    -0.149015553956E+04    0.88625E-03   -0.58378E-03   987   0.875E-02    0.124E-01
RMM:   4    -0.149015549981E+04    0.39750E-04   -0.98172E-04  1006   0.362E-02    0.307E-02
RMM:   5    -0.149015548565E+04    0.14160E-04   -0.12010E-04   980   0.114E-02    0.994E-03
RMM:   6    -0.149015548524E+04    0.40758E-06   -0.87830E-06   903   0.358E-03
  54 F= -.14901555E+04 E0= -.14901555E+04  d E =-.163846E-01
       N       E                     dE             d eps       ncg     rms          rms(c)
DAV:   1    -0.149015548541E+04    0.24285E-06   -0.71035E-05  1081   0.130E-02    0.258E-03
RMM:   2    -0.149015548553E+04   -0.12733E-06   -0.19604E-06   624   0.204E-03
  55 F= -.14901555E+04 E0= -.14901555E+04  d E =-.163849E-01
       N       E                     dE             d eps       ncg     rms          rms(c)
DAV:   1    -0.149016627901E+04   -0.10794E-01   -0.26967E+00   966   0.252E+00    0.433E-01
RMM:   2    -0.149016918194E+04   -0.29029E-02   -0.49224E-02   966   0.304E-01    0.268E-01
RMM:   3    -0.149016851596E+04    0.66598E-03   -0.44429E-03   990   0.761E-02    0.106E-01
RMM:   4    -0.149016848874E+04    0.27219E-04   -0.71212E-04  1004   0.312E-02    0.274E-02
RMM:   5    -0.149016847821E+04    0.10536E-04   -0.99687E-05   979   0.101E-02    0.890E-03
RMM:   6    -0.149016847788E+04    0.33027E-06   -0.60970E-06   785   0.309E-03
  56 F= -.14901685E+04 E0= -.14901685E+04  d E =-.129923E-01
       N       E                     dE             d eps       ncg     rms          rms(c)
DAV:   1    -0.149016851588E+04   -0.37675E-04   -0.10165E-02  1116   0.155E-01    0.263E-02
RMM:   2    -0.149016852762E+04   -0.11734E-04   -0.18810E-04   966   0.187E-02    0.164E-02
RMM:   3    -0.149016852568E+04    0.19389E-05   -0.16924E-05   992   0.473E-03    0.645E-03
RMM:   4    -0.149016852568E+04    0.11205E-08   -0.22582E-06   619   0.194E-03
  57 F= -.14901685E+04 E0= -.14901685E+04  d E =-.130401E-01
       N       E                     dE             d eps       ncg     rms          rms(c)
DAV:   1    -0.149017768547E+04   -0.91598E-02   -0.26949E+00   966   0.253E+00    0.434E-01
RMM:   2    -0.149018029125E+04   -0.26058E-02   -0.47535E-02   966   0.298E-01    0.265E-01
RMM:   3    -0.149017960128E+04    0.68997E-03   -0.43184E-03   987   0.750E-02    0.106E-01
RMM:   4    -0.149017957680E+04    0.24480E-04   -0.74239E-04  1000   0.316E-02    0.273E-02
RMM:   5    -0.149017956688E+04    0.99149E-05   -0.95113E-05   977   0.999E-03    0.838E-03
RMM:   6    -0.149017956669E+04    0.19032E-06   -0.64152E-06   782   0.311E-03
  58 F= -.14901796E+04 E0= -.14901796E+04  d E =-.110410E-01
       N       E                     dE             d eps       ncg     rms          rms(c)
DAV:   1    -0.149017956851E+04   -0.16252E-05   -0.56387E-04  1140   0.364E-02    0.621E-03
RMM:   2    -0.149017956924E+04   -0.72954E-06   -0.11013E-05   966   0.449E-03    0.387E-03
RMM:   3    -0.149017956920E+04    0.38657E-07   -0.81084E-07   594   0.118E-03
  59 F= -.14901796E+04 E0= -.14901796E+04  d E =-.110435E-01
       N       E                     dE             d eps       ncg     rms          rms(c)
DAV:   1    -0.149018629663E+04   -0.67274E-02   -0.18273E+00   966   0.209E+00    0.357E-01
RMM:   2    -0.149018810601E+04   -0.18094E-02   -0.32477E-02   966   0.248E-01    0.219E-01
RMM:   3    -0.149018765683E+04    0.44917E-03   -0.29474E-03   989   0.624E-02    0.876E-02
RMM:   4    -0.149018763829E+04    0.18541E-04   -0.48647E-04  1003   0.256E-02    0.224E-02
RMM:   5    -0.149018763110E+04    0.71946E-05   -0.60042E-05   981   0.810E-03    0.698E-03
RMM:   6    -0.149018763075E+04    0.35272E-06   -0.38166E-06   698   0.254E-03
  60 F= -.14901876E+04 E0= -.14901876E+04  d E =-.806155E-02
       N       E                     dE             d eps       ncg     rms          rms(c)
DAV:   1    -0.149018763105E+04    0.50772E-07   -0.70700E-05  1081   0.129E-02    0.233E-03
RMM:   2    -0.149018763117E+04   -0.12158E-06   -0.17059E-06   617   0.189E-03
  61 F= -.14901876E+04 E0= -.14901876E+04  d E =-.806197E-02
       N       E                     dE             d eps       ncg     rms          rms(c)
DAV:   1    -0.149019361494E+04   -0.59839E-02   -0.16819E+00   966   0.200E+00    0.342E-01
RMM:   2    -0.149019518852E+04   -0.15736E-02   -0.29058E-02   966   0.233E-01    0.207E-01
RMM:   3    -0.149019477366E+04    0.41485E-03   -0.26516E-03   989   0.593E-02    0.829E-02
RMM:   4    -0.149019475331E+04    0.20357E-04   -0.45252E-04  1001   0.248E-02    0.213E-02
RMM:   5    -0.149019474693E+04    0.63772E-05   -0.52272E-05   983   0.759E-03    0.676E-03
RMM:   6    -0.149019474662E+04    0.30664E-06   -0.34292E-06   695   0.243E-03
  62 F= -.14901947E+04 E0= -.14901947E+04  d E =-.711545E-02
       N       E                     dE             d eps       ncg     rms          rms(c)
DAV:   1    -0.149019476510E+04   -0.18171E-04   -0.49636E-03  1124   0.109E-01    0.184E-02
RMM:   2    -0.149019477011E+04   -0.50068E-05   -0.87859E-05   966   0.128E-02    0.112E-02
RMM:   3    -0.149019476905E+04    0.10584E-05   -0.80526E-06   963   0.328E-03    0.450E-03
RMM:   4    -0.149019476896E+04    0.90295E-07   -0.11619E-06   602   0.141E-03
  63 F= -.14901948E+04 E0= -.14901948E+04  d E =-.713779E-02
       N       E                     dE             d eps       ncg     rms          rms(c)
DAV:   1    -0.149020002312E+04   -0.52541E-02   -0.15105E+00   966   0.190E+00    0.324E-01
RMM:   2    -0.149020140342E+04   -0.13803E-02   -0.25510E-02   966   0.219E-01    0.197E-01
RMM:   3    -0.149020103013E+04    0.37329E-03   -0.22972E-03   989   0.553E-02    0.791E-02
RMM:   4    -0.149020100981E+04    0.20316E-04   -0.39310E-04  1003   0.231E-02    0.200E-02
RMM:   5    -0.149020100427E+04    0.55371E-05   -0.46944E-05   983   0.713E-03    0.639E-03
RMM:   6    -0.149020100386E+04    0.41709E-06   -0.30402E-06   677   0.229E-03
  64 F= -.14902010E+04 E0= -.14902010E+04  d E =-.623490E-02
       N       E                     dE             d eps       ncg     rms          rms(c)
DAV:   1    -0.149020103304E+04   -0.28767E-04   -0.87205E-03  1092   0.144E-01    0.245E-02
RMM:   2    -0.149020104131E+04   -0.82743E-05   -0.15015E-04   966   0.168E-02    0.149E-02
RMM:   3    -0.149020103923E+04    0.20841E-05   -0.13519E-05   985   0.426E-03    0.604E-03
RMM:   4    -0.149020103904E+04    0.18983E-06   -0.20512E-06   619   0.182E-03
  65 F= -.14902010E+04 E0= -.14902010E+04  d E =-.627008E-02
       N       E                     dE             d eps       ncg     rms          rms(c)
DAV:   1    -0.149020613090E+04   -0.50917E-02   -0.12913E+00   966   0.176E+00    0.299E-01
RMM:   2    -0.149020730923E+04   -0.11783E-02   -0.21368E-02   966   0.200E-01    0.182E-01
RMM:   3    -0.149020700670E+04    0.30253E-03   -0.19387E-03   987   0.509E-02    0.717E-02
RMM:   4    -0.149020699431E+04    0.12391E-04   -0.33046E-04   999   0.213E-02    0.178E-02
RMM:   5    -0.149020698999E+04    0.43215E-05   -0.39069E-05   985   0.652E-03    0.578E-03
RMM:   6    -0.149020698980E+04    0.18835E-06   -0.24522E-06   656   0.211E-03
  66 F= -.14902070E+04 E0= -.14902070E+04  d E =-.595076E-02
       N       E                     dE             d eps       ncg     rms          rms(c)
DAV:   1    -0.149020717367E+04   -0.18368E-03   -0.65968E-02  1052   0.397E-01    0.675E-02
RMM:   2    -0.149020723491E+04   -0.61231E-04   -0.10975E-03   966   0.453E-02    0.410E-02
RMM:   3    -0.149020721997E+04    0.14931E-04   -0.99695E-05   987   0.116E-02    0.162E-02
RMM:   4    -0.149020721937E+04    0.60846E-06   -0.17004E-05   986   0.485E-03    0.396E-03
RMM:   5    -0.149020721902E+04    0.34351E-06   -0.16236E-06   609   0.149E-03
  67 F= -.14902072E+04 E0= -.14902072E+04  d E =-.617998E-02
       N       E                     dE             d eps       ncg     rms          rms(c)
DAV:   1    -0.149021162186E+04   -0.44025E-02   -0.11998E+00   966   0.169E+00    0.283E-01
RMM:   2    -0.149021273421E+04   -0.11124E-02   -0.19705E-02   966   0.192E-01    0.173E-01
RMM:   3    -0.149021245823E+04    0.27598E-03   -0.17838E-03   987   0.487E-02    0.662E-02
RMM:   4    -0.149021244993E+04    0.83002E-05   -0.28554E-04  1002   0.199E-02    0.163E-02
RMM:   5    -0.149021244642E+04    0.35117E-05   -0.34595E-05   986   0.612E-03    0.533E-03
RMM:   6    -0.149021244639E+04    0.32000E-07   -0.21111E-06   636   0.197E-03
  68 F= -.14902124E+04 E0= -.14902124E+04  d E =-.522737E-02
       N       E                     dE             d eps       ncg     rms          rms(c)
DAV:   1    -0.149021258903E+04   -0.14260E-03   -0.56803E-02  1036   0.367E-01    0.615E-02
RMM:   2    -0.149021264307E+04   -0.54041E-04   -0.93937E-04   966   0.420E-02    0.377E-02
RMM:   3    -0.149021263079E+04    0.12274E-04   -0.85056E-05   989   0.106E-02    0.144E-02
RMM:   4    -0.149021263059E+04    0.20697E-06   -0.13479E-05   984   0.433E-03    0.348E-03
RMM:   5    -0.149021263036E+04    0.22601E-06   -0.13157E-06   603   0.136E-03
  69 F= -.14902126E+04 E0= -.14902126E+04  d E =-.541134E-02
       N       E                     dE             d eps       ncg     rms          rms(c)
DAV:   1    -0.149021671733E+04   -0.40867E-02   -0.97624E-01   966   0.153E+00    0.262E-01
RMM:   2    -0.149021757138E+04   -0.85405E-03   -0.15549E-02   966   0.172E-01    0.160E-01
RMM:   3    -0.149021734142E+04    0.22996E-03   -0.14346E-03   986   0.437E-02    0.592E-02
RMM:   4    -0.149021733497E+04    0.64445E-05   -0.21642E-04  1004   0.174E-02    0.148E-02
RMM:   5    -0.149021733242E+04    0.25480E-05   -0.30320E-05   983   0.564E-03    0.489E-03
RMM:   6    -0.149021733229E+04    0.13622E-06   -0.17328E-06   619   0.180E-03
  70 F= -.14902173E+04 E0= -.14902173E+04  d E =-.470193E-02
       N       E                     dE             d eps       ncg     rms          rms(c)
DAV:   1    -0.149021757621E+04   -0.24379E-03   -0.10341E-01  1020   0.496E-01    0.850E-02
RMM:   2    -0.149021766796E+04   -0.91744E-04   -0.16546E-03   966   0.559E-02    0.519E-02
RMM:   3    -0.149021764417E+04    0.23788E-04   -0.15246E-04   987   0.142E-02    0.193E-02
RMM:   4    -0.149021764366E+04    0.51101E-06   -0.23144E-05  1004   0.567E-03    0.475E-03
RMM:   5    -0.149021764342E+04    0.24191E-06   -0.26824E-06   640   0.182E-03
  71 F= -.14902176E+04 E0= -.14902176E+04  d E =-.501306E-02
       N       E                     dE             d eps       ncg     rms          rms(c)
DAV:   1    -0.149022169682E+04   -0.40532E-02   -0.94482E-01   966   0.149E+00    0.260E-01
RMM:   2    -0.149022248277E+04   -0.78595E-03   -0.14937E-02   966   0.167E-01    0.159E-01
RMM:   3    -0.149022225608E+04    0.22669E-03   -0.14661E-03   985   0.437E-02    0.558E-02
RMM:   4    -0.149022225273E+04    0.33589E-05   -0.20145E-04  1010   0.167E-02    0.151E-02
RMM:   5    -0.149022224998E+04    0.27465E-05   -0.29305E-05   975   0.559E-03    0.477E-03
RMM:   6    -0.149022224983E+04    0.14987E-06   -0.16913E-06   619   0.177E-03
  72 F= -.14902222E+04 E0= -.14902222E+04  d E =-.460641E-02
       N       E                     dE             d eps       ncg     rms          rms(c)
DAV:   1    -0.149022265585E+04   -0.40587E-03   -0.20026E-01   988   0.687E-01    0.120E-01
RMM:   2    -0.149022282395E+04   -0.16810E-03   -0.31765E-03   966   0.771E-02    0.731E-02
RMM:   3    -0.149022277612E+04    0.47826E-04   -0.31064E-04   986   0.201E-02    0.257E-02
RMM:   4    -0.149022277542E+04    0.70270E-06   -0.42884E-05  1009   0.771E-03    0.690E-03
RMM:   5    -0.149022277489E+04    0.53397E-06   -0.59197E-06   884   0.255E-03
  73 F= -.14902228E+04 E0= -.14902228E+04  d E =-.513147E-02
       N       E                     dE             d eps       ncg     rms          rms(c)
DAV:   1    -0.149022631122E+04   -0.35358E-02   -0.10251E+00   966   0.156E+00    0.270E-01
RMM:   2    -0.149022713739E+04   -0.82618E-03   -0.15804E-02   966   0.173E-01    0.165E-01
RMM:   3    -0.149022689539E+04    0.24201E-03   -0.15210E-03   989   0.444E-02    0.580E-02
RMM:   4    -0.149022688930E+04    0.60838E-05   -0.20208E-04  1010   0.168E-02    0.149E-02
RMM:   5    -0.149022688635E+04    0.29530E-05   -0.29158E-05   978   0.555E-03    0.483E-03
RMM:   6    -0.149022688626E+04    0.87930E-07   -0.16930E-06   619   0.177E-03
  74 F= -.14902269E+04 E0= -.14902269E+04  d E =-.411137E-02
       N       E                     dE             d eps       ncg     rms          rms(c)
DAV:   1    -0.149022699967E+04   -0.11332E-03   -0.44273E-02  1036   0.324E-01    0.561E-02
RMM:   2    -0.149022703617E+04   -0.36493E-04   -0.68894E-04   966   0.360E-02    0.343E-02
RMM:   3    -0.149022702588E+04    0.10286E-04   -0.65994E-05   991   0.925E-03    0.121E-02
RMM:   4    -0.149022702560E+04    0.27564E-06   -0.88024E-06   971   0.353E-03
  75 F= -.14902270E+04 E0= -.14902270E+04  d E =-.425072E-02
       N       E                     dE             d eps       ncg     rms          rms(c)
DAV:   1    -0.149023005734E+04   -0.30315E-02   -0.85174E-01   966   0.142E+00    0.248E-01
RMM:   2    -0.149023075782E+04   -0.70048E-03   -0.13526E-02   966   0.159E-01    0.150E-01
RMM:   3    -0.149023054354E+04    0.21428E-03   -0.12548E-03   985   0.407E-02    0.549E-02
RMM:   4    -0.149023053646E+04    0.70794E-05   -0.18839E-04  1007   0.161E-02    0.137E-02
RMM:   5    -0.149023053414E+04    0.23226E-05   -0.24211E-05   977   0.511E-03    0.435E-03
RMM:   6    -0.149023053408E+04    0.59983E-07   -0.13950E-06   613   0.162E-03
  76 F= -.14902305E+04 E0= -.14902305E+04  d E =-.350847E-02
       N       E                     dE             d eps       ncg     rms          rms(c)
DAV:   1    -0.149023065449E+04   -0.12036E-03   -0.54517E-02  1020   0.358E-01    0.625E-02
RMM:   2    -0.149023069971E+04   -0.45221E-04   -0.86940E-04   966   0.403E-02    0.378E-02
RMM:   3    -0.149023068602E+04    0.13696E-04   -0.80642E-05   986   0.103E-02    0.139E-02
RMM:   4    -0.149023068554E+04    0.48095E-06   -0.12073E-05   982   0.409E-03    0.341E-03
RMM:   5    -0.149023068543E+04    0.11161E-06   -0.12910E-06   605   0.134E-03
  77 F= -.14902307E+04 E0= -.14902307E+04  d E =-.365982E-02
       N       E                     dE             d eps       ncg     rms          rms(c)
DAV:   1    -0.149023334316E+04   -0.26576E-02   -0.84150E-01   966   0.140E+00    0.244E-01
RMM:   2    -0.149023404893E+04   -0.70577E-03   -0.13454E-02   966   0.158E-01    0.149E-01
RMM:   3    -0.149023382708E+04    0.22184E-03   -0.12836E-03   982   0.408E-02    0.531E-02
RMM:   4    -0.149023382211E+04    0.49798E-05   -0.18774E-04  1009   0.160E-02    0.144E-02
RMM:   5    -0.149023381966E+04    0.24470E-05   -0.28678E-05   976   0.541E-03    0.450E-03
RMM:   6    -0.149023381945E+04    0.20557E-06   -0.16191E-06   615   0.170E-03
  78 F= -.14902338E+04 E0= -.14902338E+04  d E =-.313403E-02
       N       E                     dE             d eps       ncg     rms          rms(c)
DAV:   1    -0.149023390792E+04   -0.88258E-04   -0.44079E-02  1036   0.321E-01    0.557E-02
RMM:   2    -0.149023394564E+04   -0.37728E-04   -0.71046E-04   966   0.364E-02    0.340E-02
RMM:   3    -0.149023393406E+04    0.11583E-04   -0.67192E-05   983   0.935E-03    0.122E-02
RMM:   4    -0.149023393378E+04    0.27710E-06   -0.99467E-06   971   0.370E-03
  79 F= -.14902339E+04 E0= -.14902339E+04  d E =-.324836E-02
       N       E                     dE             d eps       ncg     rms          rms(c)
DAV:   1    -0.149023668087E+04   -0.27468E-02   -0.77943E-01   966   0.135E+00    0.246E-01
RMM:   2    -0.149023725125E+04   -0.57038E-03   -0.11831E-02   966   0.149E-01    0.148E-01
RMM:   3    -0.149023705472E+04    0.19653E-03   -0.11641E-03   987   0.387E-02    0.511E-02
RMM:   4    -0.149023704977E+04    0.49508E-05   -0.15265E-04  1013   0.146E-02    0.133E-02
RMM:   5    -0.149023704777E+04    0.19993E-05   -0.24414E-05   979   0.496E-03    0.439E-03
RMM:   6    -0.149023704778E+04   -0.15418E-07   -0.14014E-06   607   0.159E-03
  80 F= -.14902370E+04 E0= -.14902370E+04  d E =-.311400E-02
       N       E                     dE             d eps       ncg     rms          rms(c)
DAV:   1    -0.149023716243E+04   -0.11467E-03   -0.52179E-02  1020   0.349E-01    0.635E-02
RMM:   2    -0.149023720147E+04   -0.39036E-04   -0.79568E-04   966   0.385E-02    0.383E-02
RMM:   3    -0.149023718875E+04    0.12722E-04   -0.78033E-05   989   0.100E-02    0.132E-02
RMM:   4    -0.149023718854E+04    0.20818E-06   -0.10122E-05   978   0.378E-03    0.335E-03
RMM:   5    -0.149023718846E+04    0.76419E-07   -0.13581E-06   605   0.134E-03
  81 F= -.14902372E+04 E0= -.14902372E+04  d E =-.325468E-02
       N       E                     dE             d eps       ncg     rms          rms(c)
DAV:   1    -0.149023967960E+04   -0.24911E-02   -0.83229E-01   966   0.139E+00    0.249E-01
RMM:   2    -0.149024031530E+04   -0.63571E-03   -0.12745E-02   966   0.155E-01    0.152E-01
RMM:   3    -0.149024009494E+04    0.22036E-03   -0.12926E-03   990   0.403E-02    0.503E-02
RMM:   4    -0.149024009088E+04    0.40627E-05   -0.15002E-04  1017   0.143E-02    0.143E-02
RMM:   5    -0.149024008867E+04    0.22096E-05   -0.30379E-05   971   0.543E-03    0.474E-03
RMM:   6    -0.149024008847E+04    0.19598E-06   -0.18046E-06   617   0.172E-03
  82 F= -.14902401E+04 E0= -.14902401E+04  d E =-.290001E-02
       N       E                     dE             d eps       ncg     rms          rms(c)
DAV:   1    -0.149024015166E+04   -0.62987E-04   -0.30342E-02  1036   0.265E-01    0.475E-02
RMM:   2    -0.149024017584E+04   -0.24180E-04   -0.47055E-04   966   0.297E-02    0.290E-02
RMM:   3    -0.149024016818E+04    0.76557E-05   -0.46849E-05   992   0.770E-03    0.970E-03
RMM:   4    -0.149024016814E+04    0.39436E-07   -0.51518E-06   788   0.278E-03
  83 F= -.14902402E+04 E0= -.14902402E+04  d E =-.297968E-02
       N       E                     dE             d eps       ncg     rms          rms(c)
DAV:   1    -0.149024258868E+04   -0.24205E-02   -0.76645E-01   966   0.133E+00    0.238E-01
RMM:   2    -0.149024312675E+04   -0.53807E-03   -0.11384E-02   966   0.146E-01    0.144E-01
RMM:   3    -0.149024291819E+04    0.20856E-03   -0.11676E-03   988   0.382E-02    0.477E-02
RMM:   4    -0.149024291488E+04    0.33105E-05   -0.14261E-04  1018   0.139E-02    0.132E-02
RMM:   5    -0.149024291300E+04    0.18803E-05   -0.23445E-05   974   0.486E-03    0.409E-03
RMM:   6    -0.149024291277E+04    0.23079E-06   -0.13655E-06   605   0.155E-03
  84 F= -.14902429E+04 E0= -.14902429E+04  d E =-.274463E-02
       N       E                     dE             d eps       ncg     rms          rms(c)
DAV:   1    -0.149024302671E+04   -0.11371E-03   -0.62307E-02  1020   0.379E-01    0.676E-02
RMM:   2    -0.149024307113E+04   -0.44418E-04   -0.93095E-04   966   0.417E-02    0.410E-02
RMM:   3    -0.149024305423E+04    0.16901E-04   -0.94868E-05   990   0.109E-02    0.136E-02
RMM:   4    -0.149024305401E+04    0.22089E-06   -0.11491E-05   983   0.396E-03    0.367E-03
RMM:   5    -0.149024305397E+04    0.39152E-07   -0.16057E-06   607   0.144E-03
  85 F= -.14902431E+04 E0= -.14902431E+04  d E =-.288583E-02
       N       E                     dE             d eps       ncg     rms          rms(c)
DAV:   1    -0.149024541590E+04   -0.23619E-02   -0.58544E-01   966   0.116E+00    0.213E-01
RMM:   2    -0.149024579402E+04   -0.37811E-03   -0.82930E-03   966   0.124E-01    0.128E-01
RMM:   3    -0.149024563792E+04    0.15609E-03   -0.83567E-04   987   0.325E-02    0.413E-02
RMM:   4    -0.149024563395E+04    0.39749E-05   -0.10081E-04  1018   0.118E-02    0.110E-02
RMM:   5    -0.149024563248E+04    0.14699E-05   -0.17224E-05   975   0.413E-03    0.358E-03
RMM:   6    -0.149024563230E+04    0.18263E-06   -0.98031E-07   602   0.132E-03
  86 F= -.14902456E+04 E0= -.14902456E+04  d E =-.257833E-02
       N       E                     dE             d eps       ncg     rms          rms(c)
DAV:   1    -0.149024589492E+04   -0.26245E-03   -0.13640E-01   988   0.562E-01    0.103E-01
RMM:   2    -0.149024598375E+04   -0.88829E-04   -0.19404E-03   966   0.602E-02    0.619E-02
RMM:   3    -0.149024594744E+04    0.36310E-04   -0.19496E-04   990   0.157E-02    0.200E-02
RMM:   4    -0.149024594644E+04    0.10014E-05   -0.23228E-05  1012   0.568E-03    0.525E-03
RMM:   5    -0.149024594611E+04    0.33395E-06   -0.34780E-06   685   0.198E-03
  87 F= -.14902459E+04 E0= -.14902459E+04  d E =-.289214E-02
       N       E                     dE             d eps       ncg     rms          rms(c)
DAV:   1    -0.149024816294E+04   -0.22165E-02   -0.62226E-01   966   0.120E+00    0.213E-01
RMM:   2    -0.149024860348E+04   -0.44053E-03   -0.90304E-03   966   0.130E-01    0.129E-01
RMM:   3    -0.149024844045E+04    0.16303E-03   -0.90078E-04   989   0.337E-02    0.412E-02
RMM:   4    -0.149024843715E+04    0.32928E-05   -0.10521E-04  1017   0.120E-02    0.112E-02
RMM:   5    -0.149024843554E+04    0.16088E-05   -0.18220E-05   976   0.428E-03    0.371E-03
RMM:   6    -0.149024843538E+04    0.15988E-06   -0.10693E-06   602   0.137E-03
  88 F= -.14902484E+04 E0= -.14902484E+04  d E =-.248928E-02
       N       E                     dE             d eps       ncg     rms          rms(c)
DAV:   1    -0.149024864087E+04   -0.20533E-03   -0.11107E-01  1004   0.505E-01    0.901E-02
RMM:   2    -0.149024872007E+04   -0.79197E-04   -0.16200E-03   966   0.552E-02    0.547E-02
RMM:   3    -0.149024869098E+04    0.29086E-04   -0.16061E-04   990   0.142E-02    0.175E-02
RMM:   4    -0.149024869040E+04    0.58698E-06   -0.18851E-05  1007   0.506E-03    0.469E-03
RMM:   5    -0.149024869010E+04    0.29663E-06   -0.27557E-06   643   0.182E-03
  89 F= -.14902487E+04 E0= -.14902487E+04  d E =-.274399E-02
       N       E                     dE             d eps       ncg     rms          rms(c)
DAV:   1    -0.149025062586E+04   -0.19355E-02   -0.63078E-01   966   0.120E+00    0.217E-01
RMM:   2    -0.149025106597E+04   -0.44011E-03   -0.93250E-03   966   0.133E-01    0.132E-01
RMM:   3    -0.149025089279E+04    0.17318E-03   -0.93857E-04   988   0.342E-02    0.433E-02
RMM:   4    -0.149025088902E+04    0.37678E-05   -0.11321E-04  1015   0.125E-02    0.119E-02
RMM:   5    -0.149025088739E+04    0.16383E-05   -0.19364E-05   972   0.442E-03    0.373E-03
RMM:   6    -0.149025088718E+04    0.20482E-06   -0.10531E-06   602   0.138E-03
  90 F= -.14902509E+04 E0= -.14902509E+04  d E =-.219708E-02
       N       E                     dE             d eps       ncg     rms          rms(c)
DAV:   1    -0.149025094988E+04   -0.62490E-04   -0.30154E-02  1036   0.263E-01    0.474E-02
RMM:   2    -0.149025097148E+04   -0.21605E-04   -0.45017E-04   966   0.291E-02    0.288E-02
RMM:   3    -0.149025096332E+04    0.81597E-05   -0.44860E-05   988   0.750E-03    0.953E-03
RMM:   4    -0.149025096319E+04    0.12902E-06   -0.51121E-06   789   0.276E-03
  91 F= -.14902510E+04 E0= -.14902510E+04  d E =-.227309E-02
       N       E                     dE             d eps       ncg     rms          rms(c)
DAV:   1    -0.149025289241E+04   -0.19291E-02   -0.63862E-01   972   0.121E+00    0.226E-01
RMM:   2    -0.149025329751E+04   -0.40510E-03   -0.91694E-03   966   0.131E-01    0.135E-01
RMM:   3    -0.149025312659E+04    0.17091E-03   -0.93021E-04   989   0.339E-02    0.446E-02
RMM:   4    -0.149025312219E+04    0.44035E-05   -0.11380E-04  1018   0.125E-02    0.117E-02
RMM:   5    -0.149025312039E+04    0.17996E-05   -0.19251E-05   975   0.435E-03    0.385E-03
RMM:   6    -0.149025312024E+04    0.14502E-06   -0.10328E-06   602   0.137E-03
  92 F= -.14902531E+04 E0= -.14902531E+04  d E =-.215705E-02
       N       E                     dE             d eps       ncg     rms          rms(c)
DAV:   1    -0.149025319869E+04   -0.78298E-04   -0.40604E-02  1020   0.305E-01    0.568E-02
RMM:   2    -0.149025322511E+04   -0.26424E-04   -0.58568E-04   966   0.330E-02    0.339E-02
RMM:   3    -0.149025321465E+04    0.10457E-04   -0.59168E-05   991   0.856E-03    0.112E-02
RMM:   4    -0.149025321448E+04    0.17551E-06   -0.68986E-06   907   0.315E-03
  93 F= -.14902532E+04 E0= -.14902532E+04  d E =-.225129E-02
       N       E                     dE             d eps       ncg     rms          rms(c)
DAV:   1    -0.149025509059E+04   -0.18759E-02   -0.69139E-01   966   0.125E+00    0.230E-01
RMM:   2    -0.149025554538E+04   -0.45479E-03   -0.10013E-02   966   0.137E-01    0.138E-01
RMM:   3    -0.149025535555E+04    0.18983E-03   -0.10366E-03   993   0.356E-02    0.439E-02
RMM:   4    -0.149025535148E+04    0.40718E-05   -0.11275E-04  1023   0.123E-02    0.122E-02
RMM:   5    -0.149025534911E+04    0.23699E-05   -0.22587E-05   971   0.465E-03    0.396E-03
RMM:   6    -0.149025534892E+04    0.19063E-06   -0.13099E-06   606   0.146E-03
  94 F= -.14902553E+04 E0= -.14902553E+04  d E =-.213444E-02
       N       E                     dE             d eps       ncg     rms          rms(c)
DAV:   1    -0.149025542777E+04   -0.78663E-04   -0.42148E-02  1020   0.309E-01    0.567E-02
RMM:   2    -0.149025545622E+04   -0.28449E-04   -0.61469E-04   966   0.338E-02    0.342E-02
RMM:   3    -0.149025544488E+04    0.11346E-04   -0.62758E-05   994   0.878E-03    0.109E-02
RMM:   4    -0.149025544463E+04    0.24292E-06   -0.66149E-06   893   0.304E-03
  95 F= -.14902554E+04 E0= -.14902554E+04  d E =-.223015E-02
       N       E                     dE             d eps       ncg     rms          rms(c)
DAV:   1    -0.149025725654E+04   -0.18117E-02   -0.68068E-01   966   0.124E+00    0.230E-01
RMM:   2    -0.149025764710E+04   -0.39056E-03   -0.96485E-03   966   0.134E-01    0.138E-01
RMM:   3    -0.149025744696E+04    0.20015E-03   -0.10175E-03   990   0.354E-02    0.432E-02
RMM:   4    -0.149025744270E+04    0.42565E-05   -0.11439E-04  1024   0.123E-02    0.121E-02
RMM:   5    -0.149025744089E+04    0.18135E-05   -0.18210E-05   974   0.430E-03    0.366E-03
RMM:   6    -0.149025744064E+04    0.24300E-06   -0.11514E-06   605   0.139E-03
  96 F= -.14902574E+04 E0= -.14902574E+04  d E =-.199601E-02
       N       E                     dE             d eps       ncg     rms          rms(c)
DAV:   1    -0.149025748137E+04   -0.40481E-04   -0.20226E-02  1044   0.214E-01    0.396E-02
RMM:   2    -0.149025749325E+04   -0.11879E-04   -0.29040E-04   966   0.232E-02    0.237E-02
RMM:   3    -0.149025748714E+04    0.61043E-05   -0.30382E-05   992   0.611E-03    0.750E-03
RMM:   4    -0.149025748693E+04    0.21593E-06   -0.29632E-06   658   0.215E-03
  97 F= -.14902575E+04 E0= -.14902575E+04  d E =-.204229E-02
       N       E                     dE             d eps       ncg     rms          rms(c)
DAV:   1    -0.149025919095E+04   -0.17038E-02   -0.64786E-01   966   0.121E+00    0.227E-01
RMM:   2    -0.149025953537E+04   -0.34442E-03   -0.88753E-03   966   0.128E-01    0.136E-01
RMM:   3    -0.149025934457E+04    0.19080E-03   -0.92803E-04   989   0.337E-02    0.422E-02
RMM:   4    -0.149025933971E+04    0.48658E-05   -0.10455E-04  1020   0.118E-02    0.116E-02
RMM:   5    -0.149025933778E+04    0.19249E-05   -0.18433E-05   973   0.426E-03    0.363E-03
RMM:   6    -0.149025933750E+04    0.28635E-06   -0.11073E-06   602   0.137E-03
  98 F= -.14902593E+04 E0= -.14902593E+04  d E =-.185057E-02
       N       E                     dE             d eps       ncg     rms          rms(c)
DAV:   1    -0.149025937641E+04   -0.38629E-04   -0.18940E-02  1052   0.207E-01    0.388E-02
RMM:   2    -0.149025938680E+04   -0.10384E-04   -0.26226E-04   966   0.219E-02    0.232E-02
RMM:   3    -0.149025938122E+04    0.55794E-05   -0.27177E-05   993   0.576E-03    0.726E-03
RMM:   4    -0.149025938098E+04    0.23724E-06   -0.25796E-06   641   0.203E-03
  99 F= -.14902594E+04 E0= -.14902594E+04  d E =-.189405E-02
       N       E                     dE             d eps       ncg     rms          rms(c)
DAV:   1    -0.149026089023E+04   -0.15090E-02   -0.59633E-01   966   0.116E+00    0.215E-01
RMM:   2    -0.149026123680E+04   -0.34657E-03   -0.84063E-03   966   0.125E-01    0.129E-01
RMM:   3    -0.149026105893E+04    0.17787E-03   -0.88872E-04   993   0.327E-02    0.403E-02
RMM:   4    -0.149026105489E+04    0.40421E-05   -0.96627E-05  1022   0.113E-02    0.115E-02
RMM:   5    -0.149026105266E+04    0.22300E-05   -0.19524E-05   974   0.433E-03    0.371E-03
RMM:   6    -0.149026105245E+04    0.20855E-06   -0.11234E-06   602   0.136E-03
 100 F= -.14902611E+04 E0= -.14902611E+04  d E =-.167147E-02
       N       E                     dE             d eps       ncg     rms          rms(c)
DAV:   1    -0.149026107778E+04   -0.25113E-04   -0.12246E-02  1060   0.166E-01    0.307E-02
RMM:   2    -0.149026108531E+04   -0.75385E-05   -0.17489E-04   966   0.179E-02    0.185E-02
RMM:   3    -0.149026108188E+04    0.34298E-05   -0.18133E-05   994   0.469E-03    0.581E-03
RMM:   4    -0.149026108177E+04    0.11727E-06   -0.16478E-06   615   0.163E-03
 101 F= -.14902611E+04 E0= -.14902611E+04  d E =-.170079E-02
       N       E                     dE             d eps       ncg     rms          rms(c)
DAV:   1    -0.149026253691E+04   -0.14550E-02   -0.46718E-01   966   0.102E+00    0.192E-01
RMM:   2    -0.149026278825E+04   -0.25134E-03   -0.65680E-03   966   0.110E-01    0.114E-01
RMM:   3    -0.149026264288E+04    0.14537E-03   -0.68887E-04   987   0.290E-02    0.363E-02
RMM:   4    -0.149026263955E+04    0.33322E-05   -0.80292E-05  1021   0.103E-02    0.103E-02
RMM:   5    -0.149026263837E+04    0.11772E-05   -0.14037E-05   971   0.372E-03    0.318E-03
RMM:   6    -0.149026263825E+04    0.12660E-06   -0.89141E-07   602   0.121E-03
 102 F= -.14902626E+04 E0= -.14902626E+04  d E =-.155648E-02
       N       E                     dE             d eps       ncg     rms          rms(c)
DAV:   1    -0.149026270462E+04   -0.66246E-04   -0.32359E-02  1020   0.270E-01    0.504E-02
RMM:   2    -0.149026272259E+04   -0.17972E-04   -0.45899E-04   966   0.291E-02    0.301E-02
RMM:   3    -0.149026271264E+04    0.99571E-05   -0.47729E-05   988   0.764E-03    0.960E-03
RMM:   4    -0.149026271240E+04    0.23358E-06   -0.51894E-06   786   0.274E-03
 103 F= -.14902627E+04 E0= -.14902627E+04  d E =-.163063E-02
       N       E                     dE             d eps       ncg     rms          rms(c)
DAV:   1    -0.149026404036E+04   -0.13277E-02   -0.37365E-01   966   0.914E-01    0.174E-01
RMM:   2    -0.149026422919E+04   -0.18883E-03   -0.51400E-03   966   0.972E-02    0.104E-01
RMM:   3    -0.149026411023E+04    0.11896E-03   -0.54919E-04   989   0.258E-02    0.321E-02
RMM:   4    -0.149026410736E+04    0.28683E-05   -0.61344E-05  1026   0.901E-03    0.915E-03
RMM:   5    -0.149026410623E+04    0.11330E-05   -0.11831E-05   960   0.335E-03    0.288E-03
RMM:   6    -0.149026410609E+04    0.14495E-06   -0.77076E-07   602   0.110E-03
 104 F= -.14902641E+04 E0= -.14902641E+04  d E =-.139368E-02
       N       E                     dE             d eps       ncg     rms          rms(c)
DAV:   1    -0.149026421136E+04   -0.10513E-03   -0.49131E-02  1020   0.331E-01    0.630E-02
RMM:   2    -0.149026423649E+04   -0.25131E-04   -0.67777E-04   966   0.353E-02    0.376E-02
RMM:   3    -0.149026422085E+04    0.15632E-04   -0.71666E-05   989   0.932E-03    0.116E-02
RMM:   4    -0.149026422046E+04    0.39922E-06   -0.78078E-06   932   0.327E-03
 105 F= -.14902642E+04 E0= -.14902642E+04  d E =-.150805E-02
       N       E                     dE             d eps       ncg     rms          rms(c)
DAV:   1    -0.149026546732E+04   -0.12465E-02   -0.33635E-01   966   0.865E-01    0.165E-01
RMM:   2    -0.149026565063E+04   -0.18331E-03   -0.47896E-03   966   0.939E-02    0.982E-02
RMM:   3    -0.149026554666E+04    0.10397E-03   -0.50822E-04   989   0.247E-02    0.315E-02
RMM:   4    -0.149026554347E+04    0.31890E-05   -0.58411E-05  1025   0.883E-03    0.884E-03
RMM:   5    -0.149026554199E+04    0.14806E-05   -0.11079E-05   955   0.321E-03    0.285E-03
RMM:   6    -0.149026554190E+04    0.89291E-07   -0.65939E-07   602   0.105E-03
 106 F= -.14902655E+04 E0= -.14902655E+04  d E =-.132145E-02
       N       E                     dE             d eps       ncg     rms          rms(c)
DAV:   1    -0.149026567121E+04   -0.12922E-03   -0.62762E-02  1020   0.374E-01    0.713E-02
RMM:   2    -0.149026570581E+04   -0.34600E-04   -0.89410E-04   966   0.406E-02    0.423E-02
RMM:   3    -0.149026568666E+04    0.19154E-04   -0.94082E-05   988   0.107E-02    0.135E-02
RMM:   4    -0.149026568605E+04    0.60680E-06   -0.10770E-05   980   0.382E-03    0.372E-03
RMM:   5    -0.149026568566E+04    0.38814E-06   -0.17423E-06   609   0.147E-03
 107 F= -.14902657E+04 E0= -.14902657E+04  d E =-.146521E-02
       N       E                     dE             d eps       ncg     rms          rms(c)
DAV:   1    -0.149026690533E+04   -0.12193E-02   -0.39962E-01   966   0.945E-01    0.179E-01
RMM:   2    -0.149026710852E+04   -0.20318E-03   -0.56634E-03   966   0.102E-01    0.106E-01
RMM:   3    -0.149026698026E+04    0.12825E-03   -0.60219E-04   987   0.270E-02    0.335E-02
RMM:   4    -0.149026697701E+04    0.32574E-05   -0.67415E-05  1023   0.948E-03    0.986E-03
RMM:   5    -0.149026697574E+04    0.12720E-05   -0.12673E-05   964   0.348E-03    0.303E-03
RMM:   6    -0.149026697559E+04    0.14715E-06   -0.83197E-07   602   0.115E-03
 108 F= -.14902670E+04 E0= -.14902670E+04  d E =-.128993E-02
       N       E                     dE             d eps       ncg     rms          rms(c)
DAV:   1    -0.149026704443E+04   -0.68696E-04   -0.35617E-02  1020   0.282E-01    0.533E-02
RMM:   2    -0.149026706309E+04   -0.18661E-04   -0.50976E-04   966   0.306E-02    0.317E-02
RMM:   3    -0.149026705168E+04    0.11417E-04   -0.53638E-05   987   0.808E-03    0.101E-02
RMM:   4    -0.149026705133E+04    0.34186E-06   -0.57367E-06   820   0.287E-03
[...]
DAV:   1    -0.149027425266E+04    0.27556E-06   -0.95215E-06  1004   0.458E-03    0.101E-03
RMM:   2    -0.149027425267E+04   -0.71086E-08   -0.26420E-07   557   0.749E-04
 123 F= -.14902743E+04 E0= -.14902743E+04  d E =-.710509E-03
       N       E                     dE             d eps       ncg     rms          rms(c)
DAV:   1    -0.149027479361E+04   -0.54094E-03   -0.27541E-01   966   0.790E-01    0.152E-01
RMM:   2    -0.149027493863E+04   -0.14502E-03   -0.39945E-03   966   0.863E-02    0.912E-02
RMM:   3    -0.149027484418E+04    0.94452E-04   -0.41292E-04   986   0.228E-02    0.275E-02
RMM:   4    -0.149027484211E+04    0.20715E-05   -0.46835E-05  1028   0.784E-03    0.825E-03
RMM:   5    -0.149027484124E+04    0.86532E-06   -0.10114E-05   944   0.308E-03    0.268E-03
RMM:   6    -0.149027484103E+04    0.21564E-06   -0.77101E-07   602   0.107E-03
 124 F= -.14902748E+04 E0= -.14902748E+04  d E =-.588357E-03
       N       E                     dE             d eps       ncg     rms          rms(c)
DAV:   1    -0.149027484320E+04   -0.19531E-05   -0.80379E-04  1084   0.427E-02    0.825E-03
RMM:   2    -0.149027484359E+04   -0.39773E-06   -0.11107E-05   966   0.459E-03    0.491E-03
RMM:   3    -0.149027484335E+04    0.24466E-06   -0.10460E-06   578   0.126E-03
 125 F= -.14902748E+04 E0= -.14902748E+04  d E =-.590679E-03
       N       E                     dE             d eps       ncg     rms          rms(c)
DAV:   1    -0.149027530354E+04   -0.45995E-03   -0.16085E-01   966   0.604E-01    0.116E-01
RMM:   2    -0.149027539201E+04   -0.88466E-04   -0.24319E-03   966   0.672E-02    0.686E-02
RMM:   3    -0.149027533669E+04    0.55314E-04   -0.24998E-04   978   0.178E-02    0.221E-02
RMM:   4    -0.149027533534E+04    0.13509E-05   -0.32564E-05  1021   0.654E-03    0.656E-03
RMM:   5    -0.149027533470E+04    0.64574E-06   -0.57345E-06   851   0.238E-03
 126 F= -.14902753E+04 E0= -.14902753E+04  d E =-.491347E-03
       N       E                     dE             d eps       ncg     rms          rms(c)
DAV:   1    -0.149027533690E+04   -0.15600E-05   -0.93171E-04  1124   0.460E-02    0.856E-03
RMM:   2    -0.149027533754E+04   -0.63521E-06   -0.14139E-05   966   0.510E-03    0.519E-03
RMM:   3    -0.149027533730E+04    0.23365E-06   -0.12251E-06   606   0.140E-03
 127 F= -.14902753E+04 E0= -.14902753E+04  d E =-.493954E-03
       N       E                     dE             d eps       ncg     rms          rms(c)
DAV:   1    -0.149027570240E+04   -0.36486E-03   -0.15613E-01   966   0.596E-01    0.112E-01
RMM:   2    -0.149027580170E+04   -0.99301E-04   -0.24237E-03   966   0.673E-02    0.672E-02
RMM:   3    -0.149027575000E+04    0.51694E-04   -0.24723E-04   984   0.177E-02    0.217E-02
RMM:   4    -0.149027574921E+04    0.79162E-06   -0.30593E-05  1021   0.637E-03    0.646E-03
RMM:   5    -0.149027574882E+04    0.38660E-06   -0.55298E-06   846   0.234E-03
 128 F= -.14902757E+04 E0= -.14902757E+04  d E =-.411521E-03
       N       E                     dE             d eps       ncg     rms          rms(c)
DAV:   1    -0.149027574874E+04    0.47244E-06   -0.26939E-05  1108   0.792E-03    0.196E-03
RMM:   2    -0.149027574876E+04   -0.18234E-07   -0.68665E-07   562   0.123E-03
 129 F= -.14902757E+04 E0= -.14902757E+04  d E =-.411453E-03
       N       E                     dE             d eps       ncg     rms          rms(c)
DAV:   1    -0.149027614841E+04   -0.39967E-03   -0.14390E-01   966   0.573E-01    0.109E-01
RMM:   2    -0.149027623023E+04   -0.81819E-04   -0.21551E-03   966   0.633E-02    0.650E-02
RMM:   3    -0.149027618537E+04    0.44859E-04   -0.22766E-04   987   0.168E-02    0.210E-02
RMM:   4    -0.149027618441E+04    0.96417E-06   -0.26154E-05  1018   0.592E-03    0.623E-03
RMM:   5    -0.149027618392E+04    0.49245E-06   -0.50027E-06   823   0.224E-03
 130 F= -.14902762E+04 E0= -.14902762E+04  d E =-.435159E-03
       N       E                     dE             d eps       ncg     rms          rms(c)
DAV:   1    -0.149027618946E+04   -0.50526E-05   -0.26396E-03  1092   0.777E-02    0.145E-02
RMM:   2    -0.149027619112E+04   -0.16611E-05   -0.39316E-05   966   0.853E-03    0.876E-03
RMM:   3    -0.149027619042E+04    0.70019E-06   -0.38627E-06   698   0.232E-03
 131 F= -.14902762E+04 E0= -.14902762E+04  d E =-.441665E-03
       N       E                     dE             d eps       ncg     rms          rms(c)
DAV:   1    -0.149027658901E+04   -0.39789E-03   -0.14254E-01   966   0.571E-01    0.108E-01
RMM:   2    -0.149027666578E+04   -0.76774E-04   -0.21026E-03   966   0.625E-02    0.646E-02
RMM:   3    -0.149027662078E+04    0.45006E-04   -0.22289E-04   990   0.167E-02    0.208E-02
RMM:   4    -0.149027661948E+04    0.12913E-05   -0.25155E-05  1015   0.584E-03    0.609E-03
RMM:   5    -0.149027661892E+04    0.56835E-06   -0.44029E-06   775   0.215E-03
 132 F= -.14902766E+04 E0= -.14902766E+04  d E =-.428493E-03
       N       E                     dE             d eps       ncg     rms          rms(c)
DAV:   1    -0.149027662946E+04   -0.99795E-05   -0.40642E-03  1076   0.964E-02    0.180E-02
RMM:   2    -0.149027663179E+04   -0.23221E-05   -0.59912E-05   966   0.105E-02    0.108E-02
RMM:   3    -0.149027663061E+04    0.11786E-05   -0.62283E-06   865   0.285E-03    0.344E-03
RMM:   4    -0.149027663056E+04    0.50801E-07   -0.69756E-07   598   0.116E-03
 133 F= -.14902766E+04 E0= -.14902766E+04  d E =-.440134E-03
       N       E                     dE             d eps       ncg     rms          rms(c)
DAV:   1    -0.149027695318E+04   -0.32257E-03   -0.15289E-01   966   0.592E-01    0.110E-01
RMM:   2    -0.149027704602E+04   -0.92841E-04   -0.23392E-03   966   0.662E-02    0.657E-02
RMM:   3    -0.149027699532E+04    0.50697E-04   -0.23512E-04   987   0.173E-02    0.215E-02
RMM:   4    -0.149027699404E+04    0.12855E-05   -0.29927E-05  1014   0.630E-03    0.623E-03
RMM:   5    -0.149027699364E+04    0.39132E-06   -0.49306E-06   823   0.225E-03
 134 F= -.14902770E+04 E0= -.14902770E+04  d E =-.363087E-03
       N       E                     dE             d eps       ncg     rms          rms(c)
DAV:   1    -0.149027699368E+04    0.35699E-06   -0.44540E-05  1116   0.101E-02    0.183E-03
RMM:   2    -0.149027699371E+04   -0.29635E-07   -0.76286E-07   571   0.128E-03
 135 F= -.14902770E+04 E0= -.14902770E+04  d E =-.363151E-03
       N       E                     dE             d eps       ncg     rms          rms(c)
DAV:   1    -0.149027733393E+04   -0.34025E-03   -0.13274E-01   966   0.552E-01    0.105E-01
RMM:   2    -0.149027740599E+04   -0.72057E-04   -0.19568E-03   966   0.604E-02    0.622E-02
RMM:   3    -0.149027736256E+04    0.43431E-04   -0.20146E-04   989   0.160E-02    0.202E-02
RMM:   4    -0.149027736121E+04    0.13452E-05   -0.24441E-05  1008   0.578E-03    0.573E-03
RMM:   5    -0.149027736076E+04    0.44814E-06   -0.42767E-06   752   0.211E-03
 136 F= -.14902774E+04 E0= -.14902774E+04  d E =-.367057E-03
       N       E                     dE             d eps       ncg     rms          rms(c)
DAV:   1    -0.149027737101E+04   -0.97958E-05   -0.43382E-03  1052   0.998E-02    0.187E-02
RMM:   2    -0.149027737343E+04   -0.24222E-05   -0.63725E-05   966   0.109E-02    0.111E-02
RMM:   3    -0.149027737204E+04    0.13873E-05   -0.65961E-06   889   0.293E-03    0.356E-03
RMM:   4    -0.149027737198E+04    0.64509E-07   -0.72339E-07   598   0.117E-03
 137 F= -.14902774E+04 E0= -.14902774E+04  d E =-.378271E-03
       N       E                     dE             d eps       ncg     rms          rms(c)
DAV:   1    -0.149027764676E+04   -0.27471E-03   -0.11470E-01   966   0.515E-01    0.969E-02
RMM:   2    -0.149027771500E+04   -0.68243E-04   -0.17619E-03   966   0.573E-02    0.576E-02
RMM:   3    -0.149027767754E+04    0.37460E-04   -0.18325E-04   993   0.152E-02    0.197E-02
RMM:   4    -0.149027767608E+04    0.14617E-05   -0.22481E-05  1006   0.552E-03    0.553E-03
RMM:   5    -0.149027767547E+04    0.61338E-06   -0.33864E-06   681   0.196E-03
 138 F= -.14902777E+04 E0= -.14902777E+04  d E =-.303487E-03
       N       E                     dE             d eps       ncg     rms          rms(c)
DAV:   1    -0.149027767645E+04   -0.37298E-06   -0.22181E-04  1156   0.226E-02    0.410E-03
RMM:   2    -0.149027767660E+04   -0.15230E-06   -0.33725E-06   691   0.258E-03
 139 F= -.14902777E+04 E0= -.14902777E+04  d E =-.304625E-03
       N       E                     dE             d eps       ncg     rms          rms(c)
DAV:   1    -0.149027790907E+04   -0.23262E-03   -0.95108E-02   966   0.469E-01    0.872E-02
RMM:   2    -0.149027796897E+04   -0.59893E-04   -0.14528E-03   966   0.522E-02    0.521E-02
RMM:   3    -0.149027793879E+04    0.30175E-04   -0.14431E-04   986   0.137E-02    0.172E-02
RMM:   4    -0.149027793833E+04    0.46360E-06   -0.18849E-05   999   0.510E-03    0.480E-03
RMM:   5    -0.149027793809E+04    0.23740E-06   -0.27267E-06   641   0.180E-03
 140 F= -.14902779E+04 E0= -.14902779E+04  d E =-.261486E-03
       N       E                     dE             d eps       ncg     rms          rms(c)
DAV:   1    -0.149027793978E+04   -0.14474E-05   -0.50840E-04  1116   0.343E-02    0.618E-03
RMM:   2    -0.149027794019E+04   -0.41394E-06   -0.79361E-06   928   0.385E-03
 141 F= -.14902779E+04 E0= -.14902779E+04  d E =-.263585E-03
       N       E                     dE             d eps       ncg     rms          rms(c)
DAV:   1    -0.149027815701E+04   -0.21724E-03   -0.74609E-02   966   0.416E-01    0.791E-02
RMM:   2    -0.149027820190E+04   -0.44891E-04   -0.11392E-03   966   0.461E-02    0.474E-02
RMM:   3    -0.149027817715E+04    0.24752E-04   -0.11405E-04   985   0.121E-02    0.155E-02
RMM:   4    -0.149027817663E+04    0.51827E-06   -0.14957E-05   995   0.451E-03    0.428E-03
RMM:   5    -0.149027817643E+04    0.20327E-06   -0.22135E-06   622   0.164E-03
 142 F= -.14902782E+04 E0= -.14902782E+04  d E =-.236242E-03
       N       E                     dE             d eps       ncg     rms          rms(c)
DAV:   1    -0.149027817815E+04   -0.15167E-05   -0.56590E-04  1100   0.362E-02    0.669E-03
RMM:   2    -0.149027817852E+04   -0.36962E-06   -0.88124E-06   959   0.405E-03
 143 F= -.14902782E+04 E0= -.14902782E+04  d E =-.238332E-03
       N       E                     dE             d eps       ncg     rms          rms(c)
DAV:   1    -0.149027839467E+04   -0.21652E-03   -0.75149E-02   966   0.417E-01    0.790E-02
RMM:   2    -0.149027844161E+04   -0.46943E-04   -0.11800E-03   966   0.469E-02    0.472E-02
RMM:   3    -0.149027841664E+04    0.24972E-04   -0.12065E-04   990   0.124E-02    0.159E-02
RMM:   4    -0.149027841558E+04    0.10597E-05   -0.14966E-05   991   0.454E-03    0.438E-03
RMM:   5    -0.149027841523E+04    0.35589E-06   -0.21895E-06   623   0.163E-03
 144 F= -.14902784E+04 E0= -.14902784E+04  d E =-.236705E-03
       N       E                     dE             d eps       ncg     rms          rms(c)
DAV:   1    -0.149027842240E+04   -0.68135E-05   -0.31019E-03  1052   0.846E-02    0.157E-02
RMM:   2    -0.149027842436E+04   -0.19652E-05   -0.49008E-05   966   0.955E-03    0.943E-03
RMM:   3    -0.149027842329E+04    0.10669E-05   -0.47219E-06   746   0.253E-03    0.320E-03
RMM:   4    -0.149027842323E+04    0.65658E-07   -0.75352E-07   597   0.121E-03
 145 F= -.14902784E+04 E0= -.14902784E+04  d E =-.244706E-03
       N       E                     dE             d eps       ncg     rms          rms(c)
DAV:   1    -0.149027860880E+04   -0.18551E-03   -0.79300E-02   966   0.428E-01    0.811E-02
RMM:   2    -0.149027865861E+04   -0.49814E-04   -0.12321E-03   966   0.480E-02    0.484E-02
RMM:   3    -0.149027863236E+04    0.26258E-04   -0.12353E-04   987   0.125E-02    0.163E-02
RMM:   4    -0.149027863159E+04    0.77009E-06   -0.16245E-05   997   0.472E-03    0.452E-03
RMM:   5    -0.149027863140E+04    0.18651E-06   -0.25959E-06   638   0.173E-03
 146 F= -.14902786E+04 E0= -.14902786E+04  d E =-.208172E-03
       N       E                     dE             d eps       ncg     rms          rms(c)
DAV:   1    -0.149027863200E+04   -0.41547E-06   -0.46545E-04  1116   0.328E-02    0.607E-03
RMM:   2    -0.149027863232E+04   -0.31751E-06   -0.72648E-06   897   0.370E-03
 147 F= -.14902786E+04 E0= -.14902786E+04  d E =-.209091E-03
       N       E                     dE             d eps       ncg     rms          rms(c)
DAV:   1    -0.149027879806E+04   -0.16606E-03   -0.71584E-02   966   0.408E-01    0.777E-02
RMM:   2    -0.149027884037E+04   -0.42309E-04   -0.11066E-03   966   0.454E-02    0.459E-02
RMM:   3    -0.149027881677E+04    0.23600E-04   -0.11108E-04   981   0.119E-02    0.156E-02
RMM:   4    -0.149027881616E+04    0.60783E-06   -0.15343E-05   997   0.454E-03    0.423E-03
RMM:   5    -0.149027881601E+04    0.15126E-06   -0.21618E-06   622   0.161E-03
 148 F= -.14902788E+04 E0= -.14902788E+04  d E =-.183687E-03
       N       E                     dE             d eps       ncg     rms          rms(c)
DAV:   1    -0.149027881643E+04   -0.27171E-06   -0.18540E-04  1156   0.207E-02    0.378E-03
RMM:   2    -0.149027881654E+04   -0.11147E-06   -0.27669E-06   656   0.236E-03
 149 F= -.14902788E+04 E0= -.14902788E+04  d E =-.184222E-03
       N       E                     dE             d eps       ncg     rms          rms(c)
DAV:   1    -0.149027895149E+04   -0.13507E-03   -0.56813E-02   966   0.362E-01    0.678E-02
RMM:   2    -0.149027898888E+04   -0.37380E-04   -0.91912E-04   966   0.413E-02    0.407E-02
RMM:   3    -0.149027897023E+04    0.18646E-04   -0.92475E-05   981   0.109E-02    0.137E-02
RMM:   4    -0.149027896973E+04    0.49626E-06   -0.12418E-05   989   0.411E-03    0.388E-03
RMM:   5    -0.149027896951E+04    0.22272E-06   -0.16770E-06   604   0.147E-03
 150 F= -.14902790E+04 E0= -.14902790E+04  d E =-.152970E-03
       N       E                     dE             d eps       ncg     rms          rms(c)
DAV:   1    -0.149027896969E+04    0.38301E-07   -0.38570E-05  1172   0.942E-03    0.172E-03
RMM:   2    -0.149027896974E+04   -0.41240E-07   -0.65183E-07   540   0.117E-03
 151 F= -.14902790E+04 E0= -.14902790E+04  d E =-.153196E-03
       N       E                     dE             d eps       ncg     rms          rms(c)
DAV:   1    -0.149027910194E+04   -0.13224E-03   -0.47382E-02   966   0.331E-01    0.626E-02
RMM:   2    -0.149027913015E+04   -0.28216E-04   -0.73626E-04   966   0.371E-02    0.374E-02
RMM:   3    -0.149027911491E+04    0.15246E-04   -0.76344E-05   988   0.988E-03    0.121E-02
RMM:   4    -0.149027911474E+04    0.17049E-06   -0.88758E-06   966   0.350E-03
 152 F= -.14902791E+04 E0= -.14902791E+04  d E =-.145000E-03
       N       E                     dE             d eps       ncg     rms          rms(c)
DAV:   1    -0.149027911603E+04   -0.11254E-05   -0.54868E-04  1124   0.358E-02    0.710E-03
RMM:   2    -0.149027911673E+04   -0.70175E-06   -0.11709E-05   966   0.466E-03    0.438E-03
RMM:   3    -0.149027911661E+04    0.12211E-06   -0.90125E-07   594   0.122E-03
 153 F= -.14902791E+04 E0= -.14902791E+04  d E =-.146875E-03
       N       E                     dE             d eps       ncg     rms          rms(c)
DAV:   1    -0.149027922642E+04   -0.10969E-03   -0.48580E-02   966   0.337E-01    0.639E-02
RMM:   2    -0.149027925569E+04   -0.29267E-04   -0.76027E-04   966   0.377E-02    0.382E-02
RMM:   3    -0.149027923857E+04    0.17116E-04   -0.76147E-05   978   0.990E-03    0.128E-02
RMM:   4    -0.149027923815E+04    0.41678E-06   -0.10695E-05   980   0.380E-03    0.359E-03
RMM:   5    -0.149027923815E+04    0.43656E-08   -0.16297E-06   605   0.143E-03
 154 F= -.14902792E+04 E0= -.14902792E+04  d E =-.121538E-03
       N       E                     dE             d eps       ncg     rms          rms(c)
DAV:   1    -0.149027923868E+04   -0.52673E-06   -0.95310E-05  1124   0.149E-02    0.302E-03
RMM:   2    -0.149027923874E+04   -0.60667E-07   -0.13760E-06   567   0.173E-03
 155 F= -.14902792E+04 E0= -.14902792E+04  d E =-.122130E-03
       N       E                     dE             d eps       ncg     rms          rms(c)
DAV:   1    -0.149027934256E+04   -0.10388E-03   -0.39298E-02   966   0.302E-01    0.563E-02
RMM:   2    -0.149027936585E+04   -0.23287E-04   -0.61755E-04   966   0.339E-02    0.333E-02
RMM:   3    -0.149027935239E+04    0.13459E-04   -0.62156E-05   986   0.892E-03    0.114E-02
RMM:   4    -0.149027935177E+04    0.62401E-06   -0.82342E-06   958   0.335E-03
 156 F= -.14902794E+04 E0= -.14902794E+04  d E =-.113025E-03
       N       E                     dE             d eps       ncg     rms          rms(c)
DAV:   1    -0.149027935193E+04    0.46055E-06   -0.17831E-04  1148   0.204E-02    0.422E-03
RMM:   2    -0.149027935217E+04   -0.24265E-06   -0.44686E-06   736   0.295E-03
 157 F= -.14902794E+04 E0= -.14902794E+04  d E =-.113431E-03
       N       E                     dE             d eps       ncg     rms          rms(c)
DAV:   1    -0.149027944144E+04   -0.89512E-04   -0.34772E-02   966   0.285E-01    0.546E-02
RMM:   2    -0.149027946138E+04   -0.19936E-04   -0.55174E-04   966   0.322E-02    0.326E-02
RMM:   3    -0.149027944979E+04    0.11592E-04   -0.59569E-05   990   0.866E-03    0.107E-02
RMM:   4    -0.149027944967E+04    0.11134E-06   -0.65929E-06   911   0.304E-03
 158 F= -.14902794E+04 E0= -.14902794E+04  d E =-.975026E-04
       N       E                     dE             d eps       ncg     rms          rms(c)
DAV:   1    -0.149027944970E+04    0.84750E-07   -0.18132E-06   748   0.248E-03    0.898E-04
RMM:   2    -0.149027944979E+04   -0.86060E-07   -0.62746E-07   541   0.119E-03
 159 F= -.14902794E+04 E0= -.14902794E+04  d E =-.976153E-04
       N       E                     dE             d eps       ncg     rms          rms(c)
DAV:   1    -0.149027953723E+04   -0.87533E-04   -0.34767E-02   966   0.284E-01    0.538E-02
RMM:   2    -0.149027955798E+04   -0.20742E-04   -0.53798E-04   966   0.318E-02    0.320E-02
RMM:   3    -0.149027954657E+04    0.11410E-04   -0.54982E-05   982   0.841E-03    0.106E-02
RMM:   4    -0.149027954644E+04    0.12760E-06   -0.72780E-06   929   0.319E-03
 160 F= -.14902795E+04 E0= -.14902795E+04  d E =-.966507E-04
       N       E                     dE             d eps       ncg     rms          rms(c)
DAV:   1    -0.149027954664E+04   -0.75568E-07   -0.12538E-04  1156   0.172E-02    0.364E-03
RMM:   2    -0.149027954688E+04   -0.23385E-06   -0.33369E-06   676   0.258E-03
 161 F= -.14902795E+04 E0= -.14902795E+04  d E =-.970877E-04
       N       E                     dE             d eps       ncg     rms          rms(c)
DAV:   1    -0.149027961923E+04   -0.72587E-04   -0.32298E-02   966   0.274E-01    0.519E-02
RMM:   2    -0.149027964051E+04   -0.21279E-04   -0.52672E-04   966   0.313E-02    0.313E-02
RMM:   3    -0.149027962899E+04    0.11519E-04   -0.53158E-05   986   0.828E-03    0.105E-02
RMM:   4    -0.149027962853E+04    0.46280E-06   -0.68139E-06   925   0.309E-03
 162 F= -.14902796E+04 E0= -.14902796E+04  d E =-.816502E-04
       N       E                     dE             d eps       ncg     rms          rms(c)
DAV:   1    -0.149027962834E+04    0.65010E-06   -0.93724E-05  1132   0.148E-02    0.259E-03
RMM:   2    -0.149027962839E+04   -0.51048E-07   -0.10288E-06   573   0.152E-03
 163 F= -.14902796E+04 E0= -.14902796E+04  d E =-.815139E-04
       N       E                     dE             d eps       ncg     rms          rms(c)
DAV:   1    -0.149027969388E+04   -0.65546E-04   -0.25277E-02   966   0.243E-01    0.453E-02
RMM:   2    -0.149027970890E+04   -0.15013E-04   -0.38842E-04   966   0.268E-02    0.264E-02
RMM:   3    -0.149027970081E+04    0.80827E-05   -0.38482E-05   985   0.703E-03    0.943E-03
RMM:   4    -0.149027970051E+04    0.30130E-06   -0.50832E-06   804   0.271E-03
 164 F= -.14902797E+04 E0= -.14902797E+04  d E =-.721239E-04
