       N       E                     dE             d eps       ncg     rms          rms(c)
DAV:   1     0.226795032863E+04    0.22680E+04   -0.26865E+05   954   0.107E+03
DAV:   2    -0.113385535759E+04   -0.34018E+04   -0.32175E+04  1167   0.223E+02
DAV:   3    -0.142605953553E+04   -0.29220E+03   -0.28813E+03  1172   0.631E+01
DAV:   4    -0.143965613591E+04   -0.13597E+02   -0.13550E+02  1348   0.145E+01
DAV:   5    -0.144005044839E+04   -0.39431E+00   -0.39379E+00  1204   0.229E+00    0.820E+01
RMM:   6    -0.130434028661E+04    0.13571E+03   -0.39617E+02   956   0.183E+01    0.414E+01
RMM:   7    -0.129192563293E+04    0.12415E+02   -0.79765E+01   957   0.826E+00    0.183E+01
RMM:   8    -0.128974071292E+04    0.21849E+01   -0.81006E+00   973   0.291E+00    0.274E+00
RMM:   9    -0.128963724195E+04    0.10347E+00   -0.68336E-01   996   0.886E-01    0.118E+00
RMM:  10    -0.128963532394E+04    0.19180E-02   -0.18113E-01   981   0.375E-01    0.613E-01
RMM:  11    -0.128963722635E+04   -0.19024E-02   -0.77139E-02   958   0.279E-01    0.331E-01
RMM:  12    -0.128964033579E+04   -0.31094E-02   -0.35166E-02   963   0.170E-01    0.154E-01
RMM:  13    -0.128964557279E+04   -0.52370E-02   -0.54822E-03   982   0.710E-02    0.663E-02
RMM:  14    -0.128964816445E+04   -0.25917E-02   -0.21689E-03   963   0.490E-02    0.490E-02
RMM:  15    -0.128964872490E+04   -0.56045E-03   -0.32269E-04   964   0.206E-02    0.164E-02
RMM:  16    -0.128964880861E+04   -0.83712E-04   -0.74985E-05   976   0.922E-03    0.129E-02
RMM:  17    -0.128964882450E+04   -0.15892E-04   -0.12397E-05   950   0.358E-03    0.512E-03
RMM:  18    -0.128964883421E+04   -0.97110E-05   -0.88535E-06   911   0.278E-03    0.310E-03
RMM:  19    -0.128964883483E+04   -0.61528E-06   -0.76239E-07   601   0.974E-04
   1 F= -.12896488E+04 E0= -.12896488E+04  d E =-.128965E+04
       N       E                     dE             d eps       ncg     rms          rms(c)
DAV:   1    -0.128994263749E+04   -0.29380E+00   -0.29184E+03  1018   0.728E+01    0.442E+01
RMM:   2    -0.131268961708E+04   -0.22747E+02   -0.36887E+02   955   0.226E+01    0.288E+01
RMM:   3    -0.130615481051E+04    0.65348E+01   -0.16138E+01   981   0.419E+00    0.217E+01
RMM:   4    -0.130421338179E+04    0.19414E+01   -0.15328E+01   961   0.363E+00    0.729E+00
RMM:   5    -0.130347695859E+04    0.73642E+00   -0.12667E+00   968   0.106E+00    0.397E+00
RMM:   6    -0.130337413824E+04    0.10282E+00   -0.74738E-01   963   0.763E-01    0.191E+00
RMM:   7    -0.130336850114E+04    0.56371E-02   -0.61525E-02   956   0.267E-01    0.773E-01
RMM:   8    -0.130336770422E+04    0.79692E-03   -0.25499E-02   974   0.147E-01    0.514E-01
RMM:   9    -0.130336941483E+04   -0.17106E-02   -0.78975E-03   961   0.867E-02    0.185E-01
RMM:  10    -0.130336883081E+04    0.58402E-03   -0.23518E-03   961   0.416E-02    0.102E-01
RMM:  11    -0.130336881925E+04    0.11562E-04   -0.13691E-03   992   0.317E-02    0.547E-02
RMM:  12    -0.130336914365E+04   -0.32440E-03   -0.44021E-04   971   0.199E-02    0.378E-02
RMM:  13    -0.130336929287E+04   -0.14922E-03   -0.35766E-04   957   0.162E-02    0.206E-02
RMM:  14    -0.130336940154E+04   -0.10867E-03   -0.11373E-04   954   0.989E-03    0.131E-02
RMM:  15    -0.130336945508E+04   -0.53541E-04   -0.31614E-05   942   0.475E-03    0.669E-03
RMM:  16    -0.130336948776E+04   -0.32677E-04   -0.13081E-05   890   0.318E-03    0.376E-03
RMM:  17    -0.130336949925E+04   -0.11490E-04   -0.30251E-06   657   0.159E-03    0.160E-03
RMM:  18    -0.130336950359E+04   -0.43389E-05   -0.14139E-06   613   0.108E-03    0.126E-03
RMM:  19    -0.130336950537E+04   -0.17841E-05   -0.47526E-07   598   0.607E-04    0.500E-04
RMM:  20    -0.130336950581E+04   -0.44303E-06   -0.23084E-07   495   0.441E-04
   2 F= -.13033695E+04 E0= -.13033427E+04  d E =-.137207E+02
       N       E                     dE             d eps       ncg     rms          rms(c)
DAV:   1    -0.135155787075E+04   -0.48188E+02   -0.13207E+03   983   0.445E+01    0.428E+01
RMM:   2    -0.135087387441E+04    0.68400E+00   -0.70940E+01   960   0.106E+01    0.109E+01
RMM:   3    -0.134932894810E+04    0.15449E+01   -0.62335E+00   962   0.268E+00    0.729E+00
RMM:   4    -0.134893912827E+04    0.38982E+00   -0.19334E+00   974   0.144E+00    0.367E+00
RMM:   5    -0.134891477324E+04    0.24355E-01   -0.15926E-01   965   0.453E-01    0.151E+00
RMM:   6    -0.134891647988E+04   -0.17066E-02   -0.35623E-02   997   0.214E-01    0.631E-01
RMM:   7    -0.134891892838E+04   -0.24485E-02   -0.13955E-02   977   0.111E-01    0.102E-01
RMM:   8    -0.134891882288E+04    0.10551E-03   -0.17627E-03   973   0.420E-02    0.114E-01
RMM:   9    -0.134891993256E+04   -0.11097E-02   -0.62515E-04   968   0.258E-02    0.406E-02
RMM:  10    -0.134892018435E+04   -0.25180E-03   -0.28560E-04   964   0.145E-02    0.191E-02
RMM:  11    -0.134892069391E+04   -0.50955E-03   -0.20822E-04   957   0.127E-02    0.271E-02
RMM:  12    -0.134892076754E+04   -0.73629E-04   -0.35014E-05   961   0.463E-03    0.128E-02
RMM:  13    -0.134892082794E+04   -0.60399E-04   -0.21753E-05   905   0.370E-03    0.302E-03
RMM:  14    -0.134892083603E+04   -0.80962E-05   -0.27635E-06   657   0.129E-03    0.236E-03
RMM:  15    -0.134892084200E+04   -0.59696E-05   -0.18022E-06   632   0.109E-03    0.272E-03
RMM:  16    -0.134892084218E+04   -0.18254E-06   -0.22734E-07   493   0.477E-04
   3 F= -.13489208E+04 E0= -.13489208E+04  d E =-.592720E+02
       N       E                     dE             d eps       ncg     rms          rms(c)
DAV:   1    -0.134906621579E+04   -0.14537E+00   -0.10489E+00  1068   0.136E+00    0.762E-01
RMM:   2    -0.134906636472E+04   -0.14893E-03   -0.47963E-02   959   0.295E-01    0.341E-01
RMM:   3    -0.134906495875E+04    0.14060E-02   -0.62115E-03   959   0.821E-02    0.125E-01
RMM:   4    -0.134906490421E+04    0.54543E-04   -0.93779E-04  1000   0.332E-02    0.541E-02
RMM:   5    -0.134906489111E+04    0.13101E-04   -0.20455E-04   972   0.140E-02    0.247E-02
RMM:   6    -0.134906490105E+04   -0.99371E-05   -0.24846E-05   968   0.530E-03    0.120E-02
RMM:   7    -0.134906490638E+04   -0.53338E-05   -0.31230E-06   666   0.209E-03    0.284E-03
RMM:   8    -0.134906490708E+04   -0.70372E-06   -0.26669E-06   633   0.164E-03
   4 F= -.13490649E+04 E0= -.13490649E+04  d E =-.594161E+02
       N       E                     dE             d eps       ncg     rms          rms(c)
DAV:   1    -0.134912217097E+04   -0.57265E-01   -0.12812E+00  1004   0.151E+00    0.851E-01
RMM:   2    -0.134912228086E+04   -0.10989E-03   -0.58554E-02   959   0.328E-01    0.379E-01
RMM:   3    -0.134912052566E+04    0.17552E-02   -0.75735E-03   959   0.908E-02    0.139E-01
RMM:   4    -0.134912045077E+04    0.74893E-04   -0.11441E-03   995   0.368E-02    0.602E-02
RMM:   5    -0.134912043270E+04    0.18063E-04   -0.25000E-04   970   0.155E-02    0.272E-02
RMM:   6    -0.134912044443E+04   -0.11723E-04   -0.29970E-05   977   0.585E-03    0.133E-02
RMM:   7    -0.134912045104E+04   -0.66150E-05   -0.39578E-06   696   0.230E-03    0.326E-03
RMM:   8    -0.134912045219E+04   -0.11456E-05   -0.35979E-06   701   0.183E-03    0.200E-03
RMM:   9    -0.134912045299E+04   -0.80393E-06   -0.84816E-07   596   0.101E-03
   5 F= -.13491205E+04 E0= -.13491205E+04  d E =-.594716E+02
       N       E                     dE             d eps       ncg     rms          rms(c)
DAV:   1    -0.135587071060E+04   -0.67503E+01   -0.62968E+02   962   0.365E+01    0.108E+01
RMM:   2    -0.135724064880E+04   -0.13699E+01   -0.22201E+01   955   0.601E+00    0.554E+00
RMM:   3    -0.135690503890E+04    0.33561E+00   -0.11682E+00   961   0.123E+00    0.385E+00
RMM:   4    -0.135679052035E+04    0.11452E+00   -0.88566E-01   968   0.924E-01    0.982E-01
RMM:   5    -0.135677839323E+04    0.12127E-01   -0.50723E-02   961   0.234E-01    0.416E-01
RMM:   6    -0.135677826609E+04    0.12714E-03   -0.79376E-03  1014   0.921E-02    0.180E-01
RMM:   7    -0.135677813131E+04    0.13478E-03   -0.66708E-03   964   0.704E-02    0.101E-01
RMM:   8    -0.135677765832E+04    0.47299E-03   -0.16561E-03   959   0.355E-02    0.267E-02
RMM:   9    -0.135677764512E+04    0.13203E-04   -0.16751E-04   963   0.132E-02    0.120E-02
RMM:  10    -0.135677765117E+04   -0.60553E-05   -0.44512E-05   959   0.622E-03    0.124E-02
RMM:  11    -0.135677769000E+04   -0.38823E-04   -0.21254E-05   926   0.423E-03    0.476E-03
RMM:  12    -0.135677770611E+04   -0.16113E-04   -0.11800E-05   902   0.286E-03    0.314E-03
RMM:  13    -0.135677770919E+04   -0.30754E-05   -0.17938E-06   614   0.128E-03    0.765E-04
RMM:  14    -0.135677771061E+04   -0.14278E-05   -0.83415E-07   599   0.864E-04    0.869E-04
RMM:  15    -0.135677771089E+04   -0.28051E-06   -0.24574E-07   588   0.506E-04
   6 F= -.13567777E+04 E0= -.13567777E+04  d E =-.765726E+01
       N       E                     dE             d eps       ncg     rms          rms(c)
DAV:   1    -0.135705362166E+04   -0.27591E+00   -0.18986E+01   954   0.635E+00    0.197E+00
RMM:   2    -0.135707782840E+04   -0.24207E-01   -0.53448E-01   955   0.965E-01    0.757E-01
RMM:   3    -0.135706877648E+04    0.90519E-02   -0.39899E-02   957   0.226E-01    0.370E-01
RMM:   4    -0.135706752106E+04    0.12554E-02   -0.11108E-02   980   0.110E-01    0.136E-01
RMM:   5    -0.135706741803E+04    0.10302E-03   -0.10258E-03   969   0.335E-02    0.523E-02
RMM:   6    -0.135706745411E+04   -0.36078E-04   -0.14879E-04  1017   0.133E-02    0.267E-02
RMM:   7    -0.135706750354E+04   -0.49424E-04   -0.62989E-05   960   0.740E-03    0.796E-03
RMM:   8    -0.135706751603E+04   -0.12495E-04   -0.14483E-05   945   0.344E-03    0.434E-03
RMM:   9    -0.135706754551E+04   -0.29476E-04   -0.71894E-06   820   0.234E-03    0.281E-03
RMM:  10    -0.135706754951E+04   -0.40007E-05   -0.98923E-07   605   0.968E-04    0.177E-03
RMM:  11    -0.135706755798E+04   -0.84731E-05   -0.25029E-06   642   0.117E-03    0.961E-04
RMM:  12    -0.135706755830E+04   -0.31953E-06   -0.23068E-07   544   0.487E-04
   7 F= -.13570676E+04 E0= -.13570676E+04  d E =-.794711E+01
       N       E                     dE             d eps       ncg     rms          rms(c)
DAV:   1    -0.135954586722E+04   -0.24783E+01   -0.25594E+02   954   0.245E+01    0.565E+00
RMM:   2    -0.135984668392E+04   -0.30082E+00   -0.64407E+00   957   0.335E+00    0.236E+00
RMM:   3    -0.135974469346E+04    0.10199E+00   -0.43879E-01   958   0.748E-01    0.134E+00
RMM:   4    -0.135972495400E+04    0.19739E-01   -0.17126E-01   972   0.426E-01    0.454E-01
RMM:   5    -0.135972371017E+04    0.12438E-02   -0.10408E-02   970   0.111E-01    0.192E-01
RMM:   6    -0.135972392768E+04   -0.21751E-03   -0.19338E-03  1010   0.480E-02    0.741E-02
RMM:   7    -0.135972393786E+04   -0.10181E-04   -0.94492E-04   968   0.270E-02    0.359E-02
RMM:   8    -0.135972391862E+04    0.19237E-04   -0.16458E-04   962   0.117E-02    0.114E-02
RMM:   9    -0.135972393489E+04   -0.16269E-04   -0.27914E-05   963   0.523E-03    0.624E-03
RMM:  10    -0.135972393692E+04   -0.20322E-05   -0.67808E-06   879   0.236E-03    0.205E-03
RMM:  11    -0.135972394230E+04   -0.53809E-05   -0.25955E-06   642   0.163E-03    0.182E-03
RMM:  12    -0.135972394265E+04   -0.34325E-06   -0.42855E-07   596   0.725E-04
   8 F= -.13597239E+04 E0= -.13597239E+04  d E =-.265638E+01
       N       E                     dE             d eps       ncg     rms          rms(c)
DAV:   1    -0.135972442392E+04   -0.48162E-03   -0.51628E-02  1100   0.347E-01    0.718E-02
RMM:   2    -0.135972448617E+04   -0.62241E-04   -0.12331E-03   957   0.462E-02    0.344E-02
RMM:   3    -0.135972446785E+04    0.18320E-04   -0.90127E-05   957   0.106E-02    0.173E-02
RMM:   4    -0.135972446805E+04   -0.20039E-06   -0.32282E-05   971   0.583E-03    0.501E-03
RMM:   5    -0.135972446836E+04   -0.31757E-06   -0.20738E-06   602   0.167E-03
   9 F= -.13597245E+04 E0= -.13597245E+04  d E =-.265691E+01
       N       E                     dE             d eps       ncg     rms          rms(c)
DAV:   1    -0.136119115176E+04   -0.14667E+01   -0.12512E+02   954   0.172E+01    0.373E+00
RMM:   2    -0.136137408816E+04   -0.18294E+00   -0.32865E+00   957   0.239E+00    0.183E+00
RMM:   3    -0.136132602435E+04    0.48064E-01   -0.20580E-01   959   0.528E-01    0.101E+00
RMM:   4    -0.136131698249E+04    0.90419E-02   -0.99007E-02   974   0.328E-01    0.296E-01
RMM:   5    -0.136131557819E+04    0.14043E-02   -0.71730E-03   971   0.882E-02    0.137E-01
RMM:   6    -0.136131573395E+04   -0.15577E-03   -0.14521E-03  1031   0.396E-02    0.640E-02
RMM:   7    -0.136131575262E+04   -0.18664E-04   -0.11564E-03   968   0.292E-02    0.366E-02
RMM:   8    -0.136131573768E+04    0.14943E-04   -0.14630E-04   959   0.112E-02    0.828E-03
RMM:   9    -0.136131578056E+04   -0.42887E-04   -0.39142E-05   993   0.572E-03    0.612E-03
RMM:  10    -0.136131579941E+04   -0.18844E-04   -0.10314E-05   920   0.285E-03    0.269E-03
RMM:  11    -0.136131582273E+04   -0.23320E-04   -0.58289E-06   755   0.194E-03    0.219E-03
RMM:  12    -0.136131582724E+04   -0.45099E-05   -0.25887E-06   646   0.132E-03    0.108E-03
RMM:  13    -0.136131582856E+04   -0.13207E-05   -0.46966E-07   596   0.654E-04    0.325E-04
RMM:  14    -0.136131582867E+04   -0.11582E-06   -0.97409E-08   385   0.352E-04
  10 F= -.13613158E+04 E0= -.13613158E+04  d E =-.159136E+01
       N       E                     dE             d eps       ncg     rms          rms(c)
DAV:   1    -0.136132287121E+04   -0.70427E-02   -0.72010E-01  1052   0.130E+00    0.270E-01
RMM:   2    -0.136132391430E+04   -0.10431E-02   -0.18372E-02   955   0.178E-01    0.139E-01
RMM:   3    -0.136132364475E+04    0.26955E-03   -0.11656E-03   957   0.397E-02    0.753E-02
RMM:   4    -0.136132360398E+04    0.40770E-04   -0.56901E-04   973   0.249E-02    0.207E-02
RMM:   5    -0.136132359730E+04    0.66780E-05   -0.42673E-05   972   0.676E-03    0.919E-03
RMM:   6    -0.136132359964E+04   -0.23401E-05   -0.79096E-06   935   0.298E-03    0.440E-03
RMM:   7    -0.136132359986E+04   -0.21805E-06   -0.53261E-06   827   0.209E-03
  11 F= -.13613236E+04 E0= -.13613236E+04  d E =-.159913E+01
       N       E                     dE             d eps       ncg     rms          rms(c)
DAV:   1    -0.136250089812E+04   -0.11773E+01   -0.10435E+02   954   0.157E+01    0.315E+00
RMM:   2    -0.136264125457E+04   -0.14036E+00   -0.25643E+00   957   0.211E+00    0.170E+00
RMM:   3    -0.136260338846E+04    0.37866E-01   -0.17771E-01   967   0.484E-01    0.922E-01
RMM:   4    -0.136259709868E+04    0.62898E-02   -0.72839E-02   975   0.288E-01    0.239E-01
RMM:   5    -0.136259599734E+04    0.11013E-02   -0.56232E-03   969   0.784E-02    0.102E-01
RMM:   6    -0.136259608286E+04   -0.85521E-04   -0.90886E-04  1050   0.320E-02    0.478E-02
RMM:   7    -0.136259607129E+04    0.11565E-04   -0.71949E-04   967   0.229E-02    0.299E-02
RMM:   8    -0.136259603571E+04    0.35584E-04   -0.11571E-04   959   0.967E-03    0.608E-03
RMM:   9    -0.136259603806E+04   -0.23513E-05   -0.20001E-05  1063   0.422E-03    0.477E-03
RMM:  10    -0.136259603692E+04    0.11426E-05   -0.28442E-06   687   0.162E-03    0.119E-03
RMM:  11    -0.136259603704E+04   -0.12465E-06   -0.81693E-07   596   0.988E-04
  12 F= -.13625960E+04 E0= -.13625960E+04  d E =-.127244E+01
       N       E                     dE             d eps       ncg     rms          rms(c)
DAV:   1    -0.136267638969E+04   -0.80353E-01   -0.12794E+01   964   0.548E+00    0.110E+00
RMM:   2    -0.136269281650E+04   -0.16427E-01   -0.30803E-01   956   0.731E-01    0.586E-01
RMM:   3    -0.136268814535E+04    0.46712E-02   -0.22379E-02   964   0.171E-01    0.304E-01
RMM:   4    -0.136268747802E+04    0.66733E-03   -0.81235E-03   979   0.970E-02    0.806E-02
RMM:   5    -0.136268735561E+04    0.12241E-03   -0.67655E-04   970   0.271E-02    0.329E-02
RMM:   6    -0.136268736113E+04   -0.55283E-05   -0.94117E-05  1042   0.105E-02    0.156E-02
RMM:   7    -0.136268735953E+04    0.16009E-05   -0.71766E-05   968   0.728E-03    0.968E-03
RMM:   8    -0.136268735607E+04    0.34675E-05   -0.14110E-05   946   0.331E-03    0.214E-03
RMM:   9    -0.136268735644E+04   -0.37157E-06   -0.13875E-06   596   0.135E-03
  13 F= -.13626874E+04 E0= -.13626874E+04  d E =-.136376E+01
       N       E                     dE             d eps       ncg     rms          rms(c)
DAV:   1    -0.136353475154E+04   -0.84740E+00   -0.95001E+01   954   0.148E+01    0.285E+00
RMM:   2    -0.136365842660E+04   -0.12368E+00   -0.22062E+00   956   0.199E+00    0.154E+00
RMM:   3    -0.136362500553E+04    0.33421E-01   -0.14932E-01   966   0.445E-01    0.829E-01
RMM:   4    -0.136361937603E+04    0.56295E-02   -0.57908E-02   976   0.255E-01    0.217E-01
RMM:   5    -0.136361882016E+04    0.55587E-03   -0.39440E-03   973   0.676E-02    0.868E-02
RMM:   6    -0.136361886006E+04   -0.39905E-04   -0.49618E-04  1029   0.253E-02    0.368E-02
RMM:   7    -0.136361885319E+04    0.68793E-05   -0.36297E-04   965   0.166E-02    0.194E-02
RMM:   8    -0.136361883789E+04    0.15292E-04   -0.51182E-05   959   0.658E-03    0.555E-03
RMM:   9    -0.136361884105E+04   -0.31545E-05   -0.12711E-05   976   0.344E-03    0.371E-03
RMM:  10    -0.136361884082E+04    0.22734E-06   -0.21845E-06   638   0.146E-03
  14 F= -.13636188E+04 E0= -.13636188E+04  d E =-.931484E+00
       N       E                     dE             d eps       ncg     rms          rms(c)
DAV:   1    -0.136366519631E+04   -0.46355E-01   -0.89361E+00   980   0.455E+00    0.859E-01
RMM:   2    -0.136367608079E+04   -0.10884E-01   -0.20118E-01   955   0.599E-01    0.468E-01
RMM:   3    -0.136367290050E+04    0.31803E-02   -0.14486E-02   960   0.138E-01    0.233E-01
RMM:   4    -0.136367250046E+04    0.40004E-03   -0.48932E-03   977   0.747E-02    0.602E-02
RMM:   5    -0.136367245015E+04    0.50308E-04   -0.37976E-04   976   0.207E-02    0.232E-02
RMM:   6    -0.136367245203E+04   -0.18780E-05   -0.40661E-05  1026   0.736E-03    0.102E-02
RMM:   7    -0.136367245119E+04    0.83502E-06   -0.24353E-05   958   0.440E-03    0.507E-03
RMM:   8    -0.136367245051E+04    0.68117E-06   -0.41624E-06   795   0.190E-03
  15 F= -.13636725E+04 E0= -.13636725E+04  d E =-.985094E+00
       N       E                     dE             d eps       ncg     rms          rms(c)
DAV:   1    -0.136435403815E+04   -0.68159E+00   -0.66098E+01   954   0.125E+01    0.245E+00
RMM:   2    -0.136443086975E+04   -0.76832E-01   -0.15045E+00   956   0.163E+00    0.135E+00
RMM:   3    -0.136440738448E+04    0.23485E-01   -0.11991E-01   972   0.391E-01    0.665E-01
RMM:   4    -0.136440428448E+04    0.31000E-02   -0.34229E-02   979   0.202E-01    0.174E-01
RMM:   5    -0.136440392639E+04    0.35809E-03   -0.30313E-03   974   0.576E-02    0.639E-02
RMM:   6    -0.136440395652E+04   -0.30130E-04   -0.30964E-04  1038   0.202E-02    0.307E-02
RMM:   7    -0.136440395612E+04    0.39196E-06   -0.17621E-04   964   0.118E-02    0.131E-02
RMM:   8    -0.136440395052E+04    0.56011E-05   -0.32043E-05   956   0.512E-03    0.464E-03
RMM:   9    -0.136440395057E+04   -0.50110E-07   -0.34682E-06   724   0.206E-03
  16 F= -.13644040E+04 E0= -.13644040E+04  d E =-.731500E+00
       N       E                     dE             d eps       ncg     rms          rms(c)
DAV:   1    -0.136444632439E+04   -0.42374E-01   -0.70883E+00   996   0.409E+00    0.789E-01
RMM:   2    -0.136445451024E+04   -0.81858E-02   -0.16076E-01   955   0.531E-01    0.446E-01
RMM:   3    -0.136445192570E+04    0.25845E-02   -0.13255E-02   968   0.130E-01    0.211E-01
RMM:   4    -0.136445165671E+04    0.26899E-03   -0.35928E-03   979   0.656E-02    0.545E-02
RMM:   5    -0.136445161746E+04    0.39243E-04   -0.35510E-04   976   0.194E-02    0.193E-02
RMM:   6    -0.136445162104E+04   -0.35803E-05   -0.30928E-05  1041   0.650E-03    0.950E-03
RMM:   7    -0.136445162169E+04   -0.64619E-06   -0.16998E-05   954   0.370E-03    0.419E-03
RMM:   8    -0.136445162121E+04    0.48160E-06   -0.34000E-06   713   0.173E-03
  17 F= -.13644516E+04 E0= -.13644516E+04  d E =-.779171E+00
       N       E                     dE             d eps       ncg     rms          rms(c)
DAV:   1    -0.136502468463E+04   -0.57306E+00   -0.71690E+01   954   0.129E+01    0.253E+00
RMM:   2    -0.136509844913E+04   -0.73765E-01   -0.15104E+00   956   0.164E+00    0.138E+00
RMM:   3    -0.136507464268E+04    0.23806E-01   -0.12009E-01   966   0.394E-01    0.690E-01
RMM:   4    -0.136507149636E+04    0.31463E-02   -0.33690E-02   979   0.201E-01    0.184E-01
RMM:   5    -0.136507122340E+04    0.27295E-03   -0.29131E-03   973   0.570E-02    0.616E-02
RMM:   6    -0.136507124096E+04   -0.17553E-04   -0.26895E-04  1033   0.193E-02    0.278E-02
RMM:   7    -0.136507124249E+04   -0.15322E-05   -0.13052E-04   964   0.103E-02    0.106E-02
RMM:   8    -0.136507123909E+04    0.34037E-05   -0.22121E-05   958   0.432E-03    0.462E-03
RMM:   9    -0.136507123948E+04   -0.39230E-06   -0.25864E-06   619   0.187E-03
  18 F= -.13650712E+04 E0= -.13650712E+04  d E =-.619618E+00
       N       E                     dE             d eps       ncg     rms          rms(c)
DAV:   1    -0.136510091256E+04   -0.29673E-01   -0.61373E+00  1012   0.378E+00    0.720E-01
RMM:   2    -0.136510699408E+04   -0.60815E-02   -0.12582E-01   955   0.472E-01    0.401E-01
RMM:   3    -0.136510492107E+04    0.20730E-02   -0.10461E-02   961   0.116E-01    0.187E-01
RMM:   4    -0.136510472414E+04    0.19692E-03   -0.27266E-03   981   0.572E-02    0.491E-02
RMM:   5    -0.136510469902E+04    0.25124E-04   -0.27580E-04   975   0.171E-02    0.161E-02
RMM:   6    -0.136510470015E+04   -0.11302E-05   -0.21922E-05  1020   0.551E-03    0.754E-03
RMM:   7    -0.136510470094E+04   -0.79089E-06   -0.10337E-05   937   0.298E-03    0.313E-03
RMM:   8    -0.136510470070E+04    0.24378E-06   -0.18459E-06   596   0.137E-03
  19 F= -.13651047E+04 E0= -.13651047E+04  d E =-.653079E+00
       N       E                     dE             d eps       ncg     rms          rms(c)
DAV:   1    -0.136553345106E+04   -0.42875E+00   -0.64812E+01   954   0.123E+01    0.233E+00
RMM:   2    -0.136560465052E+04   -0.71199E-01   -0.13621E+00   956   0.156E+00    0.130E+00
RMM:   3    -0.136558392958E+04    0.20721E-01   -0.10337E-01   967   0.368E-01    0.620E-01
RMM:   4    -0.136558182043E+04    0.21092E-02   -0.29985E-02   979   0.189E-01    0.159E-01
RMM:   5    -0.136558150186E+04    0.31857E-03   -0.29753E-03   967   0.561E-02    0.568E-02
RMM:   6    -0.136558151103E+04   -0.91719E-05   -0.24702E-04  1037   0.185E-02    0.250E-02
RMM:   7    -0.136558151170E+04   -0.67631E-06   -0.15333E-04   966   0.110E-02    0.123E-02
RMM:   8    -0.136558150750E+04    0.42032E-05   -0.27369E-05   958   0.470E-03    0.422E-03
RMM:   9    -0.136558150779E+04   -0.28693E-06   -0.30217E-06   670   0.196E-03
  20 F= -.13655815E+04 E0= -.13655815E+04  d E =-.476807E+00
       N       E                     dE             d eps       ncg     rms          rms(c)
DAV:   1    -0.136558925774E+04   -0.77502E-02   -0.16030E+00  1028   0.193E+00    0.366E-01
RMM:   2    -0.136559097763E+04   -0.17199E-02   -0.33276E-02   956   0.243E-01    0.203E-01
RMM:   3    -0.136559045427E+04    0.52336E-03   -0.25726E-03   963   0.581E-02    0.947E-02
RMM:   4    -0.136559040547E+04    0.48799E-04   -0.72044E-04   980   0.294E-02    0.240E-02
RMM:   5    -0.136559039943E+04    0.60432E-05   -0.73501E-05   971   0.878E-03    0.847E-03
RMM:   6    -0.136559039956E+04   -0.13561E-06   -0.53163E-06   736   0.287E-03
  21 F= -.13655904E+04 E0= -.13655904E+04  d E =-.485699E+00
       N       E                     dE             d eps       ncg     rms          rms(c)
DAV:   1    -0.136587857096E+04   -0.28817E+00   -0.34025E+01   954   0.885E+00    0.174E+00
RMM:   2    -0.136591646930E+04   -0.37898E-01   -0.72741E-01   956   0.114E+00    0.952E-01
RMM:   3    -0.136590508876E+04    0.11381E-01   -0.55032E-02   965   0.269E-01    0.461E-01
RMM:   4    -0.136590372791E+04    0.13608E-02   -0.16575E-02   979   0.141E-01    0.118E-01
RMM:   5    -0.136590353868E+04    0.18923E-03   -0.17093E-03   975   0.415E-02    0.438E-02
RMM:   6    -0.136590354181E+04   -0.31303E-05   -0.13682E-04  1036   0.137E-02    0.202E-02
RMM:   7    -0.136590354286E+04   -0.10436E-05   -0.89092E-05   963   0.834E-03    0.945E-03
RMM:   8    -0.136590354008E+04    0.27804E-05   -0.14811E-05   951   0.349E-03    0.320E-03
RMM:   9    -0.136590354030E+04   -0.22278E-06   -0.15975E-06   596   0.148E-03
  22 F= -.13659035E+04 E0= -.13659035E+04  d E =-.313141E+00
       N       E                     dE             d eps       ncg     rms          rms(c)
DAV:   1    -0.136591627063E+04   -0.12731E-01   -0.24322E+00   996   0.237E+00    0.463E-01
RMM:   2    -0.136591894077E+04   -0.26701E-02   -0.51557E-02   956   0.303E-01    0.254E-01
RMM:   3    -0.136591811476E+04    0.82601E-03   -0.39539E-03   964   0.721E-02    0.121E-01
RMM:   4    -0.136591802468E+04    0.90078E-04   -0.11526E-03   979   0.372E-02    0.305E-02
RMM:   5    -0.136591801214E+04    0.12538E-04   -0.12350E-04   974   0.111E-02    0.112E-02
RMM:   6    -0.136591801246E+04   -0.31822E-06   -0.93239E-06   888   0.365E-03
  23 F= -.13659180E+04 E0= -.13659180E+04  d E =-.327613E+00
       N       E                     dE             d eps       ncg     rms          rms(c)
DAV:   1    -0.136613382072E+04   -0.21581E+00   -0.33860E+01   954   0.887E+00    0.162E+00
RMM:   2    -0.136616572202E+04   -0.31901E-01   -0.65504E-01   955   0.108E+00    0.894E-01
RMM:   3    -0.136615481107E+04    0.10911E-01   -0.51587E-02   964   0.258E-01    0.433E-01
RMM:   4    -0.136615351395E+04    0.12971E-02   -0.15177E-02   979   0.134E-01    0.111E-01
RMM:   5    -0.136615336359E+04    0.15037E-03   -0.13842E-03   971   0.386E-02    0.394E-02
RMM:   6    -0.136615337089E+04   -0.73079E-05   -0.12291E-04  1045   0.129E-02    0.183E-02
RMM:   7    -0.136615337151E+04   -0.62107E-06   -0.65685E-05   961   0.724E-03    0.789E-03
RMM:   8    -0.136615336945E+04    0.20608E-05   -0.12932E-05   939   0.323E-03    0.315E-03
RMM:   9    -0.136615336933E+04    0.12304E-06   -0.12268E-06   596   0.133E-03
  24 F= -.13661534E+04 E0= -.13661534E+04  d E =-.235357E+00
       N       E                     dE             d eps       ncg     rms          rms(c)
DAV:   1    -0.136615889271E+04   -0.55233E-02   -0.12413E+00  1028   0.170E+00    0.308E-01
RMM:   2    -0.136616005164E+04   -0.11589E-02   -0.23872E-02   955   0.206E-01    0.171E-01
RMM:   3    -0.136615965117E+04    0.40047E-03   -0.19059E-03   962   0.495E-02    0.817E-02
RMM:   4    -0.136615960934E+04    0.41828E-04   -0.54522E-04   979   0.254E-02    0.209E-02
RMM:   5    -0.136615960479E+04    0.45555E-05   -0.51484E-05   974   0.742E-03    0.724E-03
RMM:   6    -0.136615960524E+04   -0.44827E-06   -0.36430E-06   690   0.245E-03
  25 F= -.13661596E+04 E0= -.13661596E+04  d E =-.241593E+00
       N       E                     dE             d eps       ncg     rms          rms(c)
DAV:   1    -0.136631420849E+04   -0.15460E+00   -0.32215E+01   954   0.865E+00    0.161E+00
RMM:   2    -0.136635100805E+04   -0.36800E-01   -0.66911E-01   955   0.109E+00    0.934E-01
RMM:   3    -0.136634099739E+04    0.10011E-01   -0.49807E-02   968   0.259E-01    0.449E-01
RMM:   4    -0.136633979738E+04    0.12000E-02   -0.13973E-02   979   0.131E-01    0.108E-01
RMM:   5    -0.136633964178E+04    0.15560E-03   -0.13771E-03   980   0.381E-02    0.386E-02
RMM:   6    -0.136633964448E+04   -0.26977E-05   -0.10819E-04  1051   0.123E-02    0.177E-02
RMM:   7    -0.136633964435E+04    0.12634E-06   -0.62827E-05   963   0.710E-03    0.755E-03
RMM:   8    -0.136633964255E+04    0.18008E-05   -0.11341E-05   934   0.303E-03    0.305E-03
RMM:   9    -0.136633964249E+04    0.64712E-07   -0.11479E-06   596   0.127E-03
  26 F= -.13663396E+04 E0= -.13663396E+04  d E =-.180037E+00
       N       E                     dE             d eps       ncg     rms          rms(c)
DAV:   1    -0.136633967247E+04   -0.29915E-04   -0.59432E-03  1116   0.118E-01    0.217E-02
RMM:   2    -0.136633967981E+04   -0.73389E-05   -0.12514E-04   955   0.149E-02    0.127E-02
RMM:   3    -0.136633967813E+04    0.16815E-05   -0.92302E-06   962   0.354E-03    0.609E-03
RMM:   4    -0.136633967798E+04    0.14233E-06   -0.22997E-06   612   0.183E-03
  27 F= -.13663397E+04 E0= -.13663397E+04  d E =-.180073E+00
       N       E                     dE             d eps       ncg     rms          rms(c)
DAV:   1    -0.136647773115E+04   -0.13805E+00   -0.28995E+01   954   0.819E+00    0.151E+00
RMM:   2    -0.136651083502E+04   -0.33104E-01   -0.58765E-01   955   0.102E+00    0.874E-01
RMM:   3    -0.136650197800E+04    0.88570E-02   -0.44695E-02   971   0.241E-01    0.418E-01
RMM:   4    -0.136650101931E+04    0.95869E-03   -0.12305E-02   980   0.123E-01    0.107E-01
RMM:   5    -0.136650084593E+04    0.17339E-03   -0.13795E-03   974   0.372E-02    0.381E-02
RMM:   6    -0.136650084424E+04    0.16870E-05   -0.99979E-05  1042   0.119E-02    0.175E-02
RMM:   7    -0.136650084388E+04    0.36140E-06   -0.67337E-05   966   0.722E-03    0.791E-03
RMM:   8    -0.136650084184E+04    0.20340E-05   -0.12870E-05   941   0.317E-03    0.312E-03
RMM:   9    -0.136650084169E+04    0.15697E-06   -0.11355E-06   596   0.124E-03
  28 F= -.13665008E+04 E0= -.13665008E+04  d E =-.161164E+00
       N       E                     dE             d eps       ncg     rms          rms(c)
DAV:   1    -0.136650143398E+04   -0.59213E-03   -0.14411E-01  1044   0.577E-01    0.106E-01
RMM:   2    -0.136650159437E+04   -0.16039E-03   -0.28930E-03   955   0.717E-02    0.614E-02
RMM:   3    -0.136650154892E+04    0.45456E-04   -0.22391E-04   971   0.171E-02    0.286E-02
RMM:   4    -0.136650154380E+04    0.51133E-05   -0.58866E-05   982   0.851E-03    0.725E-03
RMM:   5    -0.136650154303E+04    0.77114E-06   -0.65690E-06   908   0.260E-03
  29 F= -.13665015E+04 E0= -.13665015E+04  d E =-.161865E+00
       N       E                     dE             d eps       ncg     rms          rms(c)
DAV:   1    -0.136661734781E+04   -0.11580E+00   -0.19685E+01   954   0.674E+00    0.125E+00
RMM:   2    -0.136663602067E+04   -0.18673E-01   -0.37314E-01   955   0.814E-01    0.710E-01
RMM:   3    -0.136663007606E+04    0.59446E-02   -0.30091E-02   966   0.197E-01    0.326E-01
RMM:   4    -0.136662950319E+04    0.57286E-03   -0.74910E-03   980   0.963E-02    0.829E-02
RMM:   5    -0.136662942397E+04    0.79221E-04   -0.76952E-04   975   0.285E-02    0.289E-02
RMM:   6    -0.136662942882E+04   -0.48509E-05   -0.66183E-05  1051   0.950E-03    0.130E-02
RMM:   7    -0.136662942929E+04   -0.46629E-06   -0.28591E-05   962   0.488E-03    0.530E-03
RMM:   8    -0.136662942858E+04    0.71090E-06   -0.53813E-06   843   0.216E-03
  30 F= -.13666294E+04 E0= -.13666294E+04  d E =-.127886E+00
       N       E                     dE             d eps       ncg     rms          rms(c)
DAV:   1    -0.136663285555E+04   -0.34263E-02   -0.85927E-01  1012   0.141E+00    0.261E-01
RMM:   2    -0.136663366841E+04   -0.81286E-03   -0.16192E-02   955   0.170E-01    0.149E-01
RMM:   3    -0.136663340830E+04    0.26011E-03   -0.13166E-03   966   0.412E-02    0.676E-02
RMM:   4    -0.136663338576E+04    0.22540E-04   -0.32397E-04   980   0.201E-02    0.172E-02
RMM:   5    -0.136663338347E+04    0.22897E-05   -0.34357E-05   975   0.600E-03    0.594E-03
RMM:   6    -0.136663338391E+04   -0.43976E-06   -0.22410E-06   645   0.198E-03
  31 F= -.13666334E+04 E0= -.13666334E+04  d E =-.131841E+00
       N       E                     dE             d eps       ncg     rms          rms(c)
DAV:   1    -0.136672396549E+04   -0.90582E-01   -0.19243E+01   954   0.665E+00    0.125E+00
RMM:   2    -0.136674235193E+04   -0.18386E-01   -0.37309E-01   955   0.815E-01    0.712E-01
RMM:   3    -0.136673651194E+04    0.58400E-02   -0.31142E-02   966   0.201E-01    0.322E-01
RMM:   4    -0.136673598901E+04    0.52294E-03   -0.73894E-03   983   0.955E-02    0.806E-02
RMM:   5    -0.136673591978E+04    0.69229E-04   -0.68766E-04   979   0.276E-02    0.289E-02
RMM:   6    -0.136673592486E+04   -0.50833E-05   -0.65813E-05  1044   0.941E-03    0.123E-02
RMM:   7    -0.136673592581E+04   -0.94611E-06   -0.21824E-05   960   0.439E-03    0.456E-03
RMM:   8    -0.136673592572E+04    0.82757E-07   -0.44555E-06   800   0.202E-03
  32 F= -.13667359E+04 E0= -.13667359E+04  d E =-.102542E+00
       N       E                     dE             d eps       ncg     rms          rms(c)
DAV:   1    -0.136673628388E+04   -0.35808E-03   -0.87411E-02  1076   0.448E-01    0.836E-02
RMM:   2    -0.136673636633E+04   -0.82449E-04   -0.16696E-03   955   0.546E-02    0.480E-02
RMM:   3    -0.136673633992E+04    0.26416E-04   -0.14269E-04   966   0.136E-02    0.212E-02
RMM:   4    -0.136673633817E+04    0.17480E-05   -0.32174E-05   983   0.632E-03    0.538E-03
RMM:   5    -0.136673633817E+04   -0.22555E-08   -0.26619E-06   626   0.187E-03
  33 F= -.13667363E+04 E0= -.13667363E+04  d E =-.102954E+00
       N       E                     dE             d eps       ncg     rms          rms(c)
DAV:   1    -0.136680171053E+04   -0.65372E-01   -0.15708E+01   954   0.600E+00    0.112E+00
RMM:   2    -0.136681735155E+04   -0.15641E-01   -0.30561E-01   955   0.740E-01    0.651E-01
RMM:   3    -0.136681256238E+04    0.47892E-02   -0.24970E-02   964   0.181E-01    0.289E-01
RMM:   4    -0.136681218499E+04    0.37739E-03   -0.58127E-03   981   0.849E-02    0.707E-02
RMM:   5    -0.136681212535E+04    0.59644E-04   -0.58824E-04   981   0.253E-02    0.242E-02
RMM:   6    -0.136681212815E+04   -0.28038E-05   -0.49388E-05  1043   0.825E-03    0.108E-02
RMM:   7    -0.136681212857E+04   -0.41984E-06   -0.16721E-05   959   0.387E-03    0.400E-03
RMM:   8    -0.136681212856E+04    0.14377E-07   -0.29864E-06   664   0.172E-03
  34 F= -.13668121E+04 E0= -.13668121E+04  d E =-.757904E-01
       N       E                     dE             d eps       ncg     rms          rms(c)
DAV:   1    -0.136681216421E+04   -0.35643E-04   -0.83510E-03  1092   0.138E-01    0.259E-02
RMM:   2    -0.136681217325E+04   -0.90341E-05   -0.16614E-04   957   0.172E-02    0.150E-02
RMM:   3    -0.136681217107E+04    0.21805E-05   -0.12998E-05   962   0.415E-03    0.682E-03
RMM:   4    -0.136681217094E+04    0.12259E-06   -0.28423E-06   626   0.202E-03
  35 F= -.13668122E+04 E0= -.13668122E+04  d E =-.758328E-01
       N       E                     dE             d eps       ncg     rms          rms(c)
DAV:   1    -0.136686811800E+04   -0.55947E-01   -0.11837E+01   954   0.519E+00    0.980E-01
RMM:   2    -0.136688030439E+04   -0.12186E-01   -0.23125E-01   956   0.640E-01    0.561E-01
RMM:   3    -0.136687647903E+04    0.38254E-02   -0.17981E-02   964   0.154E-01    0.251E-01
RMM:   4    -0.136687614371E+04    0.33532E-03   -0.45654E-03   978   0.749E-02    0.614E-02
RMM:   5    -0.136687608647E+04    0.57242E-04   -0.53438E-04   977   0.231E-02    0.218E-02
RMM:   6    -0.136687608451E+04    0.19610E-05   -0.37686E-05  1036   0.728E-03    0.101E-02
RMM:   7    -0.136687608478E+04   -0.26889E-06   -0.19828E-05   955   0.402E-03    0.432E-03
RMM:   8    -0.136687608415E+04    0.62458E-06   -0.38445E-06   753   0.181E-03
  36 F= -.13668761E+04 E0= -.13668761E+04  d E =-.639132E-01
       N       E                     dE             d eps       ncg     rms          rms(c)
DAV:   1    -0.136687651213E+04   -0.42736E-03   -0.11219E-01  1044   0.505E-01    0.954E-02
RMM:   2    -0.136687662600E+04   -0.11387E-03   -0.21779E-03   956   0.621E-02    0.547E-02
RMM:   3    -0.136687658899E+04    0.37006E-04   -0.17153E-04   964   0.151E-02    0.242E-02
RMM:   4    -0.136687658557E+04    0.34212E-05   -0.42507E-05   977   0.724E-03    0.601E-03
RMM:   5    -0.136687658507E+04    0.50401E-06   -0.47329E-06   800   0.226E-03
  37 F= -.13668766E+04 E0= -.13668766E+04  d E =-.644141E-01
       N       E                     dE             d eps       ncg     rms          rms(c)
DAV:   1    -0.136691989913E+04   -0.43314E-01   -0.11515E+01   954   0.514E+00    0.965E-01
RMM:   2    -0.136693170165E+04   -0.11803E-01   -0.22643E-01   956   0.633E-01    0.560E-01
RMM:   3    -0.136692789022E+04    0.38114E-02   -0.17860E-02   962   0.153E-01    0.248E-01
RMM:   4    -0.136692757033E+04    0.31989E-03   -0.44434E-03   979   0.739E-02    0.618E-02
RMM:   5    -0.136692751178E+04    0.58558E-04   -0.50754E-04   979   0.228E-02    0.216E-02
RMM:   6    -0.136692751133E+04    0.44501E-06   -0.37299E-05  1037   0.719E-03    0.984E-03
RMM:   7    -0.136692751194E+04   -0.61293E-06   -0.17776E-05   954   0.386E-03    0.415E-03
RMM:   8    -0.136692751134E+04    0.60641E-06   -0.39434E-06   752   0.183E-03
  38 F= -.13669275E+04 E0= -.13669275E+04  d E =-.509263E-01
       N       E                     dE             d eps       ncg     rms          rms(c)
DAV:   1    -0.136692751774E+04   -0.57922E-05   -0.17995E-03  1124   0.643E-02    0.122E-02
RMM:   2    -0.136692751972E+04   -0.19852E-05   -0.38211E-05   956   0.820E-03    0.702E-03
RMM:   3    -0.136692751899E+04    0.72685E-06   -0.23393E-06   623   0.192E-03
  39 F= -.13669275E+04 E0= -.13669275E+04  d E =-.509339E-01
       N       E                     dE             d eps       ncg     rms          rms(c)
DAV:   1    -0.136696439037E+04   -0.36871E-01   -0.11191E+01   954   0.507E+00    0.939E-01
RMM:   2    -0.136697489423E+04   -0.10504E-01   -0.21034E-01   956   0.609E-01    0.542E-01
RMM:   3    -0.136697133781E+04    0.35564E-02   -0.17132E-02   967   0.149E-01    0.237E-01
RMM:   4    -0.136697103572E+04    0.30210E-03   -0.39624E-03   981   0.702E-02    0.576E-02
RMM:   5    -0.136697098568E+04    0.50037E-04   -0.44739E-04   981   0.214E-02    0.199E-02
RMM:   6    -0.136697098651E+04   -0.83280E-06   -0.32918E-05  1044   0.677E-03    0.920E-03
RMM:   7    -0.136697098665E+04   -0.14179E-06   -0.15043E-05   954   0.357E-03    0.374E-03
RMM:   8    -0.136697098624E+04    0.41442E-06   -0.26562E-06   634   0.160E-03
  40 F= -.13669710E+04 E0= -.13669710E+04  d E =-.434672E-01
       N       E                     dE             d eps       ncg     rms          rms(c)
DAV:   1    -0.136697105243E+04   -0.65776E-04   -0.18054E-02  1060   0.204E-01    0.378E-02
RMM:   2    -0.136697106928E+04   -0.16855E-04   -0.34491E-04   956   0.246E-02    0.218E-02
RMM:   3    -0.136697106320E+04    0.60800E-05   -0.27411E-05   968   0.598E-03    0.969E-03
RMM:   4    -0.136697106240E+04    0.79955E-06   -0.64555E-06   917   0.286E-03
  41 F= -.13669711E+04 E0= -.13669711E+04  d E =-.435434E-01
       N       E                     dE             d eps       ncg     rms          rms(c)
DAV:   1    -0.136700269845E+04   -0.31635E-01   -0.72070E+00   954   0.407E+00    0.759E-01
RMM:   2    -0.136700911578E+04   -0.64173E-02   -0.13134E-01   956   0.482E-01    0.429E-01
RMM:   3    -0.136700679358E+04    0.23222E-02   -0.10369E-02   963   0.117E-01    0.189E-01
RMM:   4    -0.136700659145E+04    0.20213E-03   -0.25908E-03   982   0.564E-02    0.466E-02
RMM:   5    -0.136700655725E+04    0.34197E-04   -0.30392E-04   976   0.175E-02    0.161E-02
RMM:   6    -0.136700655619E+04    0.10597E-05   -0.22158E-05  1028   0.553E-03    0.741E-03
RMM:   7    -0.136700655621E+04   -0.17280E-07   -0.10898E-05   949   0.306E-03    0.327E-03
RMM:   8    -0.136700655592E+04    0.29409E-06   -0.22268E-06   608   0.146E-03
  42 F= -.13670066E+04 E0= -.13670066E+04  d E =-.354935E-01
       N       E                     dE             d eps       ncg     rms          rms(c)
DAV:   1    -0.136700687693E+04   -0.32072E-03   -0.93366E-02  1060   0.463E-01    0.863E-02
RMM:   2    -0.136700695882E+04   -0.81897E-04   -0.16919E-03   957   0.547E-02    0.489E-02
RMM:   3    -0.136700692818E+04    0.30642E-04   -0.13551E-04   963   0.133E-02    0.213E-02
RMM:   4    -0.136700692523E+04    0.29487E-05   -0.32508E-05   982   0.632E-03    0.535E-03
RMM:   5    -0.136700692462E+04    0.61769E-06   -0.34857E-06   685   0.199E-03
  43 F= -.13670069E+04 E0= -.13670069E+04  d E =-.358622E-01
       N       E                     dE             d eps       ncg     rms          rms(c)
DAV:   1    -0.136703182934E+04   -0.24904E-01   -0.59670E+00   954   0.370E+00    0.689E-01
RMM:   2    -0.136703719473E+04   -0.53654E-02   -0.10962E-01   955   0.442E-01    0.394E-01
RMM:   3    -0.136703523962E+04    0.19551E-02   -0.86563E-03   962   0.108E-01    0.170E-01
RMM:   4    -0.136703508097E+04    0.15865E-03   -0.21593E-03   980   0.517E-02    0.412E-02
RMM:   5    -0.136703505627E+04    0.24700E-04   -0.23309E-04   981   0.156E-02    0.145E-02
RMM:   6    -0.136703505569E+04    0.57515E-06   -0.18332E-05  1026   0.503E-03    0.654E-03
RMM:   7    -0.136703505543E+04    0.26119E-06   -0.79894E-06   895   0.264E-03
  44 F= -.13670351E+04 E0= -.13670351E+04  d E =-.281308E-01
       N       E                     dE             d eps       ncg     rms          rms(c)
DAV:   1    -0.136703522913E+04   -0.17343E-03   -0.47716E-02  1068   0.331E-01    0.618E-02
RMM:   2    -0.136703527345E+04   -0.44328E-04   -0.90186E-04   956   0.400E-02    0.353E-02
RMM:   3    -0.136703525733E+04    0.16128E-04   -0.70711E-05   962   0.972E-03    0.155E-02
RMM:   4    -0.136703525584E+04    0.14829E-05   -0.18129E-05   970   0.474E-03    0.382E-03
RMM:   5    -0.136703525549E+04    0.35402E-06   -0.17565E-06   603   0.149E-03
  45 F= -.13670353E+04 E0= -.13670353E+04  d E =-.283309E-01
       N       E                     dE             d eps       ncg     rms          rms(c)
DAV:   1    -0.136705332236E+04   -0.18067E-01   -0.52762E+00   954   0.348E+00    0.650E-01
RMM:   2    -0.136705838042E+04   -0.50581E-02   -0.10248E-01   955   0.427E-01    0.385E-01
RMM:   3    -0.136705665557E+04    0.17249E-02   -0.85839E-03   960   0.105E-01    0.163E-01
RMM:   4    -0.136705655746E+04    0.98115E-04   -0.19070E-03   986   0.484E-02    0.417E-02
RMM:   5    -0.136705652905E+04    0.28412E-04   -0.23529E-04   978   0.155E-02    0.137E-02
RMM:   6    -0.136705652816E+04    0.88829E-06   -0.16940E-05  1031   0.479E-03    0.591E-03
RMM:   7    -0.136705652814E+04    0.13766E-07   -0.69336E-06   871   0.249E-03
  46 F= -.13670565E+04 E0= -.13670565E+04  d E =-.212727E-01
       N       E                     dE             d eps       ncg     rms          rms(c)
DAV:   1    -0.136705659522E+04   -0.67059E-04   -0.17412E-02  1044   0.200E-01    0.373E-02
RMM:   2    -0.136705661067E+04   -0.15458E-04   -0.32509E-04   955   0.241E-02    0.220E-02
RMM:   3    -0.136705660477E+04    0.59002E-05   -0.27337E-05   961   0.597E-03    0.902E-03
RMM:   4    -0.136705660434E+04    0.43448E-06   -0.53678E-06   859   0.266E-03
  47 F= -.13670566E+04 E0= -.13670566E+04  d E =-.213488E-01
       N       E                     dE             d eps       ncg     rms          rms(c)
DAV:   1    -0.136707584909E+04   -0.19244E-01   -0.50590E+00   954   0.339E+00    0.631E-01
RMM:   2    -0.136708024618E+04   -0.43971E-02   -0.90473E-02   955   0.401E-01    0.366E-01
RMM:   3    -0.136707863233E+04    0.16139E-02   -0.74387E-03   963   0.990E-02    0.151E-01
RMM:   4    -0.136707853933E+04    0.92997E-04   -0.16617E-03   981   0.452E-02    0.374E-02
RMM:   5    -0.136707851808E+04    0.21252E-04   -0.21124E-04   987   0.145E-02    0.134E-02
RMM:   6    -0.136707851673E+04    0.13526E-05   -0.15152E-05  1025   0.456E-03    0.588E-03
RMM:   7    -0.136707851666E+04    0.68787E-07   -0.65317E-06   849   0.240E-03
  48 F= -.13670785E+04 E0= -.13670785E+04  d E =-.219123E-01
       N       E                     dE             d eps       ncg     rms          rms(c)
DAV:   1    -0.136707872220E+04   -0.20548E-03   -0.67730E-02  1060   0.393E-01    0.732E-02
RMM:   2    -0.136707878390E+04   -0.61699E-04   -0.12399E-03   957   0.470E-02    0.425E-02
RMM:   3    -0.136707876268E+04    0.21227E-04   -0.10174E-04   965   0.115E-02    0.178E-02
RMM:   4    -0.136707876169E+04    0.98695E-06   -0.23116E-05   977   0.531E-03    0.447E-03
RMM:   5    -0.136707876115E+04    0.53841E-06   -0.26103E-06   627   0.175E-03
  49 F= -.13670788E+04 E0= -.13670788E+04  d E =-.221568E-01
       N       E                     dE             d eps       ncg     rms          rms(c)
DAV:   1    -0.136709477415E+04   -0.16012E-01   -0.53563E+00   954   0.349E+00    0.647E-01
RMM:   2    -0.136709914134E+04   -0.43672E-02   -0.93086E-02   955   0.406E-01    0.372E-01
RMM:   3    -0.136709747115E+04    0.16702E-02   -0.77371E-03   963   0.101E-01    0.153E-01
RMM:   4    -0.136709736159E+04    0.10956E-03   -0.16888E-03   983   0.458E-02    0.373E-02
RMM:   5    -0.136709734241E+04    0.19173E-04   -0.18998E-04   984   0.141E-02    0.130E-02
RMM:   6    -0.136709734183E+04    0.58651E-06   -0.14539E-05  1016   0.447E-03    0.585E-03
RMM:   7    -0.136709734158E+04    0.24567E-06   -0.51748E-06   813   0.223E-03
  50 F= -.13670973E+04 E0= -.13670973E+04  d E =-.185804E-01
       N       E                     dE             d eps       ncg     rms          rms(c)
DAV:   1    -0.136709734378E+04   -0.19489E-05   -0.67059E-04  1148   0.391E-02    0.742E-03
RMM:   2    -0.136709734456E+04   -0.78231E-06   -0.14587E-05   956   0.507E-03    0.430E-03
RMM:   3    -0.136709734432E+04    0.23973E-06   -0.94923E-07   593   0.123E-03
  51 F= -.13670973E+04 E0= -.13670973E+04  d E =-.185832E-01
       N       E                     dE             d eps       ncg     rms          rms(c)
DAV:   1    -0.136710826233E+04   -0.10918E-01   -0.36015E+00   954   0.287E+00    0.533E-01
RMM:   2    -0.136711142227E+04   -0.31599E-02   -0.66229E-02   955   0.343E-01    0.311E-01
RMM:   3    -0.136711023770E+04    0.11846E-02   -0.55641E-03   963   0.851E-02    0.130E-01
RMM:   4    -0.136711015513E+04    0.82570E-04   -0.11914E-03   980   0.385E-02    0.331E-02
RMM:   5    -0.136711013845E+04    0.16684E-04   -0.14899E-04   979   0.123E-02    0.112E-02
RMM:   6    -0.136711013768E+04    0.76424E-06   -0.11118E-05   975   0.392E-03    0.497E-03
RMM:   7    -0.136711013766E+04    0.29308E-07   -0.43997E-06   775   0.207E-03
  52 F= -.13671101E+04 E0= -.13671101E+04  d E =-.127933E-01
       N       E                     dE             d eps       ncg     rms          rms(c)
DAV:   1    -0.136711018007E+04   -0.42381E-04   -0.12594E-02  1060   0.170E-01    0.315E-02
RMM:   2    -0.136711019076E+04   -0.10696E-04   -0.22251E-04   955   0.199E-02    0.183E-02
RMM:   3    -0.136711018696E+04    0.38040E-05   -0.18746E-05   961   0.498E-03    0.737E-03
RMM:   4    -0.136711018685E+04    0.10838E-06   -0.33572E-06   657   0.221E-03
  53 F= -.13671102E+04 E0= -.13671102E+04  d E =-.128425E-01
       N       E                     dE             d eps       ncg     rms          rms(c)
DAV:   1    -0.136711959334E+04   -0.94064E-02   -0.22110E+00   954   0.224E+00    0.423E-01
RMM:   2    -0.136712151407E+04   -0.19207E-02   -0.40881E-02   955   0.270E-01    0.245E-01
RMM:   3    -0.136712079259E+04    0.72148E-03   -0.34408E-03   962   0.668E-02    0.102E-01
RMM:   4    -0.136712075110E+04    0.41488E-04   -0.74620E-04   986   0.303E-02    0.263E-02
RMM:   5    -0.136712074221E+04    0.88897E-05   -0.95530E-05   979   0.978E-03    0.875E-03
RMM:   6    -0.136712074182E+04    0.39075E-06   -0.63371E-06   781   0.306E-03
  54 F= -.13671207E+04 E0= -.13671207E+04  d E =-.105550E-01
       N       E                     dE             d eps       ncg     rms          rms(c)
DAV:   1    -0.136712079576E+04   -0.53547E-04   -0.15192E-02  1084   0.186E-01    0.348E-02
RMM:   2    -0.136712080965E+04   -0.13896E-04   -0.28250E-04   955   0.224E-02    0.202E-02
RMM:   3    -0.136712080541E+04    0.42456E-05   -0.23984E-05   964   0.561E-03    0.845E-03
RMM:   4    -0.136712080532E+04    0.83950E-07   -0.48885E-06   805   0.257E-03
  55 F= -.13671208E+04 E0= -.13671208E+04  d E =-.106185E-01
       N       E                     dE             d eps       ncg     rms          rms(c)
DAV:   1    -0.136712857095E+04   -0.77655E-02   -0.21893E+00   954   0.224E+00    0.418E-01
RMM:   2    -0.136713052022E+04   -0.19493E-02   -0.40201E-02   955   0.267E-01    0.240E-01
RMM:   3    -0.136712982644E+04    0.69377E-03   -0.33249E-03   962   0.656E-02    0.103E-01
RMM:   4    -0.136712977989E+04    0.46560E-04   -0.78031E-04   981   0.309E-02    0.260E-02
RMM:   5    -0.136712977154E+04    0.83485E-05   -0.98832E-05   986   0.985E-03    0.921E-03
RMM:   6    -0.136712977128E+04    0.25911E-06   -0.64028E-06   782   0.310E-03
  56 F= -.13671298E+04 E0= -.13671298E+04  d E =-.896595E-02
       N       E                     dE             d eps       ncg     rms          rms(c)
DAV:   1    -0.136712980027E+04   -0.28737E-04   -0.91453E-03  1092   0.144E-01    0.266E-02
RMM:   2    -0.136712980888E+04   -0.86030E-05   -0.16876E-04   957   0.172E-02    0.154E-02
RMM:   3    -0.136712980648E+04    0.23987E-05   -0.14042E-05   965   0.429E-03    0.663E-03
RMM:   4    -0.136712980642E+04    0.62333E-07   -0.28412E-06   630   0.204E-03
  57 F= -.13671298E+04 E0= -.13671298E+04  d E =-.900109E-02
       N       E                     dE             d eps       ncg     rms          rms(c)
DAV:   1    -0.136713479841E+04   -0.49919E-02   -0.17917E+00   954   0.203E+00    0.374E-01
RMM:   2    -0.136713642438E+04   -0.16260E-02   -0.33367E-02   956   0.243E-01    0.215E-01
RMM:   3    -0.136713584487E+04    0.57951E-03   -0.27085E-03   967   0.593E-02    0.937E-02
RMM:   4    -0.136713579320E+04    0.51663E-04   -0.62966E-04   979   0.278E-02    0.223E-02
RMM:   5    -0.136713578610E+04    0.71051E-05   -0.66347E-05   979   0.839E-03    0.766E-03
RMM:   6    -0.136713578613E+04   -0.36176E-07   -0.46218E-06   712   0.270E-03
  58 F= -.13671358E+04 E0= -.13671358E+04  d E =-.597972E-02
       N       E                     dE             d eps       ncg     rms          rms(c)
DAV:   1    -0.136713584108E+04   -0.54978E-04   -0.15652E-02  1028   0.190E-01    0.352E-02
RMM:   2    -0.136713585519E+04   -0.14112E-04   -0.29170E-04   956   0.228E-02    0.202E-02
RMM:   3    -0.136713584995E+04    0.52337E-05   -0.23518E-05   961   0.553E-03    0.874E-03
RMM:   4    -0.136713584955E+04    0.40549E-06   -0.53672E-06   871   0.263E-03
  59 F= -.13671358E+04 E0= -.13671358E+04  d E =-.604313E-02
       N       E                     dE             d eps       ncg     rms          rms(c)
DAV:   1    -0.136714069591E+04   -0.48460E-02   -0.14492E+00   954   0.182E+00    0.333E-01
RMM:   2    -0.136714194395E+04   -0.12480E-02   -0.25905E-02   956   0.213E-01    0.194E-01
RMM:   3    -0.136714147942E+04    0.46453E-03   -0.21318E-03   966   0.527E-02    0.810E-02
RMM:   4    -0.136714144412E+04    0.35304E-04   -0.46456E-04   982   0.240E-02    0.195E-02
RMM:   5    -0.136714143856E+04    0.55608E-05   -0.55009E-05   975   0.750E-03    0.655E-03
RMM:   6    -0.136714143843E+04    0.12375E-06   -0.34932E-06   685   0.238E-03
  60 F= -.13671414E+04 E0= -.13671414E+04  d E =-.558889E-02
       N       E                     dE             d eps       ncg     rms          rms(c)
DAV:   1    -0.136714144023E+04   -0.16712E-05   -0.47569E-04  1172   0.329E-02    0.587E-03
RMM:   2    -0.136714144068E+04   -0.44903E-06   -0.91277E-06   950   0.398E-03
  61 F= -.13671414E+04 E0= -.13671414E+04  d E =-.559113E-02
       N       E                     dE             d eps       ncg     rms          rms(c)
DAV:   1    -0.136714644764E+04   -0.50074E-02   -0.12994E+00   954   0.172E+00    0.323E-01
RMM:   2    -0.136714747522E+04   -0.10276E-02   -0.22300E-02   955   0.200E-01    0.188E-01
RMM:   3    -0.136714704039E+04    0.43483E-03   -0.18370E-03   961   0.493E-02    0.753E-02
RMM:   4    -0.136714701595E+04    0.24447E-04   -0.40644E-04   985   0.225E-02    0.187E-02
RMM:   5    -0.136714701160E+04    0.43460E-05   -0.51400E-05   983   0.717E-03    0.659E-03
RMM:   6    -0.136714701141E+04    0.19536E-06   -0.31269E-06   673   0.227E-03
  62 F= -.13671470E+04 E0= -.13671470E+04  d E =-.557073E-02
       N       E                     dE             d eps       ncg     rms          rms(c)
DAV:   1    -0.136714709059E+04   -0.78991E-04   -0.27808E-02  1044   0.251E-01    0.469E-02
RMM:   2    -0.136714711335E+04   -0.22755E-04   -0.47848E-04   957   0.292E-02    0.273E-02
RMM:   3    -0.136714710468E+04    0.86648E-05   -0.39335E-05   967   0.721E-03    0.110E-02
RMM:   4    -0.136714710423E+04    0.45315E-06   -0.82900E-06   935   0.327E-03
  63 F= -.13671471E+04 E0= -.13671471E+04  d E =-.566355E-02
       N       E                     dE             d eps       ncg     rms          rms(c)
DAV:   1    -0.136715111222E+04   -0.40075E-02   -0.11738E+00   954   0.163E+00    0.311E-01
RMM:   2    -0.136715213127E+04   -0.10191E-02   -0.21199E-02   955   0.194E-01    0.181E-01
RMM:   3    -0.136715174637E+04    0.38490E-03   -0.17752E-03   961   0.478E-02    0.738E-02
RMM:   4    -0.136715172407E+04    0.22302E-04   -0.37328E-04   987   0.216E-02    0.188E-02
RMM:   5    -0.136715171907E+04    0.49994E-05   -0.53330E-05   978   0.720E-03    0.654E-03
RMM:   6    -0.136715171887E+04    0.19663E-06   -0.30074E-06   663   0.223E-03
  64 F= -.13671517E+04 E0= -.13671517E+04  d E =-.461464E-02
       N       E                     dE             d eps       ncg     rms          rms(c)
DAV:   1    -0.136715173655E+04   -0.17484E-04   -0.59040E-03  1092   0.116E-01    0.218E-02
RMM:   2    -0.136715174207E+04   -0.55188E-05   -0.10693E-04   955   0.137E-02    0.127E-02
RMM:   3    -0.136715174050E+04    0.15685E-05   -0.89418E-06   958   0.342E-03    0.521E-03
RMM:   4    -0.136715174047E+04    0.36132E-07   -0.15876E-06   607   0.156E-03
  65 F= -.13671517E+04 E0= -.13671517E+04  d E =-.463624E-02
       N       E                     dE             d eps       ncg     rms          rms(c)
DAV:   1    -0.136715535421E+04   -0.36137E-02   -0.11022E+00   954   0.158E+00    0.298E-01
RMM:   2    -0.136715621563E+04   -0.86141E-03   -0.18878E-02   956   0.184E-01    0.173E-01
RMM:   3    -0.136715583466E+04    0.38097E-03   -0.15801E-03   962   0.451E-02    0.693E-02
RMM:   4    -0.136715580993E+04    0.24729E-04   -0.32975E-04   985   0.202E-02    0.177E-02
RMM:   5    -0.136715580514E+04    0.47838E-05   -0.46034E-05   975   0.670E-03    0.601E-03
RMM:   6    -0.136715580477E+04    0.37238E-06   -0.26752E-06   653   0.209E-03
  66 F= -.13671558E+04 E0= -.13671558E+04  d E =-.406431E-02
       N       E                     dE             d eps       ncg     rms          rms(c)
DAV:   1    -0.136715581565E+04   -0.10503E-04   -0.36827E-03  1100   0.913E-02    0.170E-02
RMM:   2    -0.136715581864E+04   -0.29973E-05   -0.63747E-05   956   0.106E-02    0.995E-03
RMM:   3    -0.136715581744E+04    0.12013E-05   -0.51130E-06   775   0.265E-03    0.399E-03
RMM:   4    -0.136715581735E+04    0.93933E-07   -0.11543E-06   596   0.139E-03
  67 F= -.13671558E+04 E0= -.13671558E+04  d E =-.407688E-02
       N       E                     dE             d eps       ncg     rms          rms(c)
DAV:   1    -0.136715931262E+04   -0.34952E-02   -0.10245E+00   954   0.152E+00    0.288E-01
RMM:   2    -0.136716006303E+04   -0.75042E-03   -0.16972E-02   955   0.174E-01    0.168E-01
RMM:   3    -0.136715970643E+04    0.35660E-03   -0.14795E-03   962   0.438E-02    0.639E-02
RMM:   4    -0.136715968708E+04    0.19346E-04   -0.28390E-04   989   0.187E-02    0.163E-02
RMM:   5    -0.136715968265E+04    0.44356E-05   -0.42076E-05   976   0.638E-03    0.562E-03
RMM:   6    -0.136715968218E+04    0.46698E-06   -0.25635E-06   642   0.201E-03
  68 F= -.13671597E+04 E0= -.13671597E+04  d E =-.386483E-02
       N       E                     dE             d eps       ncg     rms          rms(c)
DAV:   1    -0.136715973920E+04   -0.56550E-04   -0.21728E-02  1028   0.221E-01    0.418E-02
RMM:   2    -0.136715975543E+04   -0.16227E-04   -0.36229E-04   956   0.254E-02    0.244E-02
RMM:   3    -0.136715974800E+04    0.74241E-05   -0.31597E-05   969   0.640E-03    0.933E-03
RMM:   4    -0.136715974743E+04    0.57150E-06   -0.56228E-06   873   0.271E-03
  69 F= -.13671597E+04 E0= -.13671597E+04  d E =-.393008E-02
       N       E                     dE             d eps       ncg     rms          rms(c)
DAV:   1    -0.136716256482E+04   -0.28168E-02   -0.10515E+00   954   0.154E+00    0.295E-01
RMM:   2    -0.136716335074E+04   -0.78592E-03   -0.17505E-02   956   0.177E-01    0.173E-01
RMM:   3    -0.136716299592E+04    0.35482E-03   -0.14748E-03   964   0.440E-02    0.666E-02
RMM:   4    -0.136716297564E+04    0.20274E-04   -0.28688E-04   987   0.190E-02    0.162E-02
RMM:   5    -0.136716297218E+04    0.34596E-05   -0.39242E-05   981   0.621E-03    0.576E-03
RMM:   6    -0.136716297197E+04    0.21358E-06   -0.23134E-06   632   0.198E-03
  70 F= -.13671630E+04 E0= -.13671630E+04  d E =-.322454E-02
       N       E                     dE             d eps       ncg     rms          rms(c)
DAV:   1    -0.136716297250E+04   -0.31976E-06   -0.12888E-04  1111   0.171E-02    0.362E-03
RMM:   2    -0.136716297251E+04   -0.45111E-08   -0.20341E-06   593   0.213E-03
  71 F= -.13671630E+04 E0= -.13671630E+04  d E =-.322508E-02
       N       E                     dE             d eps       ncg     rms          rms(c)
DAV:   1    -0.136716550166E+04   -0.25292E-02   -0.83888E-01   964   0.137E+00    0.262E-01
RMM:   2    -0.136716611710E+04   -0.61544E-03   -0.13918E-02   955   0.158E-01    0.153E-01
RMM:   3    -0.136716583981E+04    0.27729E-03   -0.11651E-03   964   0.390E-02    0.588E-02
RMM:   4    -0.136716582486E+04    0.14950E-04   -0.22410E-04   983   0.168E-02    0.143E-02
RMM:   5    -0.136716582274E+04    0.21240E-05   -0.27785E-05   981   0.533E-03    0.492E-03
RMM:   6    -0.136716582281E+04   -0.70198E-07   -0.16978E-06   622   0.171E-03
  72 F= -.13671658E+04 E0= -.13671658E+04  d E =-.285030E-02
       N       E                     dE             d eps       ncg     rms          rms(c)
DAV:   1    -0.136716583492E+04   -0.12183E-04   -0.46869E-03  1084   0.102E-01    0.195E-02
RMM:   2    -0.136716583877E+04   -0.38540E-05   -0.79148E-05   956   0.119E-02    0.114E-02
RMM:   3    -0.136716583746E+04    0.13144E-05   -0.65766E-06   900   0.296E-03    0.442E-03
RMM:   4    -0.136716583747E+04   -0.70067E-08   -0.11519E-06   597   0.135E-03
  73 F= -.13671658E+04 E0= -.13671658E+04  d E =-.286496E-02
       N       E                     dE             d eps       ncg     rms          rms(c)
DAV:   1    -0.136716829514E+04   -0.24577E-02   -0.77269E-01   954   0.131E+00    0.252E-01
RMM:   2    -0.136716885289E+04   -0.55775E-03   -0.12729E-02   955   0.151E-01    0.147E-01
RMM:   3    -0.136716859636E+04    0.25653E-03   -0.10729E-03   962   0.375E-02    0.556E-02
RMM:   4    -0.136716858192E+04    0.14447E-04   -0.19977E-04   989   0.159E-02    0.139E-02
RMM:   5    -0.136716857973E+04    0.21875E-05   -0.26070E-05   979   0.510E-03    0.479E-03
RMM:   6    -0.136716857960E+04    0.12903E-06   -0.16349E-06   616   0.167E-03
  74 F= -.13671686E+04 E0= -.13671686E+04  d E =-.274213E-02
       N       E                     dE             d eps       ncg     rms          rms(c)
DAV:   1    -0.136716862406E+04   -0.44336E-04   -0.19269E-02  1028   0.207E-01    0.397E-02
RMM:   2    -0.136716863850E+04   -0.14440E-04   -0.32027E-04   957   0.239E-02    0.232E-02
RMM:   3    -0.136716863222E+04    0.62836E-05   -0.26896E-05   968   0.593E-03    0.884E-03
RMM:   4    -0.136716863178E+04    0.43637E-06   -0.44754E-06   744   0.249E-03
  75 F= -.13671686E+04 E0= -.13671686E+04  d E =-.279432E-02
       N       E                     dE             d eps       ncg     rms          rms(c)
DAV:   1    -0.136717081085E+04   -0.21786E-02   -0.74125E-01   954   0.128E+00    0.255E-01
RMM:   2    -0.136717135831E+04   -0.54746E-03   -0.12323E-02   956   0.148E-01    0.149E-01
RMM:   3    -0.136717110656E+04    0.25176E-03   -0.10181E-03   966   0.367E-02    0.556E-02
RMM:   4    -0.136717109105E+04    0.15504E-04   -0.18705E-04   990   0.155E-02    0.140E-02
RMM:   5    -0.136717108798E+04    0.30714E-05   -0.30096E-05   981   0.528E-03    0.497E-03
RMM:   6    -0.136717108757E+04    0.41261E-06   -0.18181E-06   613   0.172E-03
  76 F= -.13671711E+04 E0= -.13671711E+04  d E =-.245578E-02
       N       E                     dE             d eps       ncg     rms          rms(c)
DAV:   1    -0.136717109729E+04   -0.93091E-05   -0.32968E-03  1092   0.856E-02    0.168E-02
RMM:   2    -0.136717109987E+04   -0.25829E-05   -0.55849E-05   956   0.992E-03    0.985E-03
RMM:   3    -0.136717109877E+04    0.10989E-05   -0.41709E-06   701   0.247E-03    0.371E-03
RMM:   4    -0.136717109867E+04    0.10343E-06   -0.98890E-07   594   0.133E-03
  77 F= -.13671711E+04 E0= -.13671711E+04  d E =-.246689E-02
       N       E                     dE             d eps       ncg     rms          rms(c)
DAV:   1    -0.136717290663E+04   -0.18079E-02   -0.68960E-01   954   0.124E+00    0.237E-01
RMM:   2    -0.136717345160E+04   -0.54497E-03   -0.11676E-02   955   0.144E-01    0.141E-01
RMM:   3    -0.136717321552E+04    0.23608E-03   -0.99210E-04   966   0.357E-02    0.530E-02
RMM:   4    -0.136717320352E+04    0.11997E-04   -0.17742E-04   988   0.149E-02    0.139E-02
RMM:   5    -0.136717320041E+04    0.31095E-05   -0.28415E-05   975   0.520E-03    0.466E-03
RMM:   6    -0.136717320004E+04    0.37233E-06   -0.16723E-06   615   0.165E-03
  78 F= -.13671732E+04 E0= -.13671732E+04  d E =-.210137E-02
       N       E                     dE             d eps       ncg     rms          rms(c)
DAV:   1    -0.136717320251E+04   -0.21033E-05   -0.92019E-04  1132   0.452E-02    0.852E-03
RMM:   2    -0.136717320338E+04   -0.86368E-06   -0.16195E-05   954   0.535E-03    0.511E-03
RMM:   3    -0.136717320313E+04    0.24675E-06   -0.11291E-06   596   0.136E-03
  79 F= -.13671732E+04 E0= -.13671732E+04  d E =-.210446E-02
       N       E                     dE             d eps       ncg     rms          rms(c)
DAV:   1    -0.136717524428E+04   -0.20409E-02   -0.51369E-01   954   0.107E+00    0.208E-01
RMM:   2    -0.136717560148E+04   -0.35719E-03   -0.83173E-03   955   0.121E-01    0.123E-01
RMM:   3    -0.136717542279E+04    0.17868E-03   -0.71488E-04   963   0.306E-02    0.445E-02
RMM:   4    -0.136717541433E+04    0.84622E-05   -0.12470E-04   989   0.126E-02    0.115E-02
RMM:   5    -0.136717541254E+04    0.17956E-05   -0.20072E-05   979   0.439E-03    0.397E-03
RMM:   6    -0.136717541225E+04    0.28714E-06   -0.12313E-06   602   0.143E-03
  80 F= -.13671754E+04 E0= -.13671754E+04  d E =-.220912E-02
       N       E                     dE             d eps       ncg     rms          rms(c)
DAV:   1    -0.136717560530E+04   -0.19276E-03   -0.83666E-02   980   0.432E-01    0.839E-02
RMM:   2    -0.136717566444E+04   -0.59141E-04   -0.13569E-03   955   0.490E-02    0.497E-02
RMM:   3    -0.136717563599E+04    0.28449E-04   -0.11637E-04   966   0.124E-02    0.180E-02
RMM:   4    -0.136717563465E+04    0.13387E-05   -0.20061E-05   981   0.506E-03    0.458E-03
RMM:   5    -0.136717563428E+04    0.37086E-06   -0.26778E-06   629   0.176E-03
  81 F= -.13671756E+04 E0= -.13671756E+04  d E =-.243115E-02
       N       E                     dE             d eps       ncg     rms          rms(c)
DAV:   1    -0.136717773651E+04   -0.21019E-02   -0.52696E-01   954   0.108E+00    0.209E-01
RMM:   2    -0.136717806648E+04   -0.32996E-03   -0.80065E-03   955   0.119E-01    0.123E-01
RMM:   3    -0.136717789062E+04    0.17585E-03   -0.69948E-04   967   0.302E-02    0.427E-02
RMM:   4    -0.136717788287E+04    0.77488E-05   -0.11245E-04   990   0.119E-02    0.107E-02
RMM:   5    -0.136717788136E+04    0.15165E-05   -0.15824E-05   978   0.399E-03    0.363E-03
RMM:   6    -0.136717788121E+04    0.14358E-06   -0.10159E-06   601   0.132E-03
  82 F= -.13671779E+04 E0= -.13671779E+04  d E =-.224693E-02
       N       E                     dE             d eps       ncg     rms          rms(c)
DAV:   1    -0.136717816322E+04   -0.28187E-03   -0.13716E-01   980   0.552E-01    0.106E-01
RMM:   2    -0.136717825019E+04   -0.86969E-04   -0.20890E-03   955   0.608E-02    0.627E-02
RMM:   3    -0.136717820500E+04    0.45189E-04   -0.18246E-04   971   0.154E-02    0.219E-02
RMM:   4    -0.136717820298E+04    0.20277E-05   -0.28642E-05   987   0.603E-03    0.541E-03
RMM:   5    -0.136717820247E+04    0.50625E-06   -0.35544E-06   677   0.202E-03
  83 F= -.13671782E+04 E0= -.13671782E+04  d E =-.256819E-02
       N       E                     dE             d eps       ncg     rms          rms(c)
DAV:   1    -0.136718025988E+04   -0.20569E-02   -0.51155E-01   954   0.107E+00    0.204E-01
RMM:   2    -0.136718058004E+04   -0.32016E-03   -0.76433E-03   955   0.117E-01    0.121E-01
RMM:   3    -0.136718040834E+04    0.17169E-03   -0.67202E-04   964   0.295E-02    0.408E-02
RMM:   4    -0.136718040178E+04    0.65667E-05   -0.10244E-04   992   0.114E-02    0.108E-02
RMM:   5    -0.136718040010E+04    0.16795E-05   -0.17494E-05   980   0.407E-03    0.375E-03
RMM:   6    -0.136718039983E+04    0.27255E-06   -0.12619E-06   601   0.140E-03
  84 F= -.13671804E+04 E0= -.13671804E+04  d E =-.219736E-02
       N       E                     dE             d eps       ncg     rms          rms(c)
DAV:   1    -0.136718079394E+04   -0.39384E-03   -0.22932E-01   964   0.713E-01    0.137E-01
RMM:   2    -0.136718093892E+04   -0.14497E-03   -0.34352E-03   955   0.782E-02    0.812E-02
RMM:   3    -0.136718086241E+04    0.76508E-04   -0.30030E-04   966   0.197E-02    0.274E-02
RMM:   4    -0.136718085945E+04    0.29635E-05   -0.45958E-05   990   0.767E-03    0.720E-03
RMM:   5    -0.136718085859E+04    0.85511E-06   -0.75149E-06   917   0.270E-03
  85 F= -.13671809E+04 E0= -.13671809E+04  d E =-.265612E-02
       N       E                     dE             d eps       ncg     rms          rms(c)
DAV:   1    -0.136718291742E+04   -0.20580E-02   -0.52638E-01   954   0.108E+00    0.210E-01
RMM:   2    -0.136718319510E+04   -0.27767E-03   -0.76284E-03   955   0.116E-01    0.123E-01
RMM:   3    -0.136718301957E+04    0.17553E-03   -0.72148E-04   966   0.301E-02    0.406E-02
RMM:   4    -0.136718301291E+04    0.66567E-05   -0.10109E-04  1004   0.113E-02    0.111E-02
RMM:   5    -0.136718301089E+04    0.20248E-05   -0.17440E-05   970   0.406E-03    0.383E-03
RMM:   6    -0.136718301054E+04    0.34693E-06   -0.13548E-06   601   0.143E-03
  86 F= -.13671830E+04 E0= -.13671830E+04  d E =-.215195E-02
       N       E                     dE             d eps       ncg     rms          rms(c)
DAV:   1    -0.136718342332E+04   -0.41243E-03   -0.21163E-01   980   0.683E-01    0.133E-01
RMM:   2    -0.136718353629E+04   -0.11297E-03   -0.30788E-03   955   0.737E-02    0.784E-02
RMM:   3    -0.136718346580E+04    0.70495E-04   -0.28912E-04   967   0.190E-02    0.259E-02
RMM:   4    -0.136718346299E+04    0.28050E-05   -0.40881E-05  1003   0.717E-03    0.703E-03
RMM:   5    -0.136718346198E+04    0.10058E-05   -0.67531E-06   886   0.256E-03    0.234E-03
RMM:   6    -0.136718346183E+04    0.15856E-06   -0.57635E-07   596   0.975E-04
  87 F= -.13671835E+04 E0= -.13671835E+04  d E =-.260324E-02
       N       E                     dE             d eps       ncg     rms          rms(c)
DAV:   1    -0.136718541044E+04   -0.19485E-02   -0.39619E-01   954   0.932E-01    0.183E-01
RMM:   2    -0.136718561959E+04   -0.20915E-03   -0.57854E-03   955   0.101E-01    0.107E-01
RMM:   3    -0.136718548158E+04    0.13801E-03   -0.54141E-04   965   0.260E-02    0.356E-02
RMM:   4    -0.136718547574E+04    0.58334E-05   -0.78708E-05   995   0.996E-03    0.956E-03
RMM:   5    -0.136718547415E+04    0.15910E-05   -0.12727E-05   967   0.350E-03    0.322E-03
RMM:   6    -0.136718547389E+04    0.26575E-06   -0.92329E-07   600   0.121E-03
  88 F= -.13671855E+04 E0= -.13671855E+04  d E =-.201206E-02
       N       E                     dE             d eps       ncg     rms          rms(c)
DAV:   1    -0.136718593982E+04   -0.46567E-03   -0.19224E-01   964   0.649E-01    0.128E-01
RMM:   2    -0.136718604248E+04   -0.10267E-03   -0.28142E-03   956   0.705E-02    0.746E-02
RMM:   3    -0.136718597579E+04    0.66694E-04   -0.26242E-04   967   0.181E-02    0.248E-02
RMM:   4    -0.136718597288E+04    0.29117E-05   -0.37997E-05   993   0.691E-03    0.663E-03
RMM:   5    -0.136718597197E+04    0.90688E-06   -0.58557E-06   855   0.242E-03
  89 F= -.13671860E+04 E0= -.13671860E+04  d E =-.251014E-02
       N       E                     dE             d eps       ncg     rms          rms(c)
DAV:   1    -0.136718795259E+04   -0.19797E-02   -0.37055E-01   954   0.899E-01    0.177E-01
RMM:   2    -0.136718812995E+04   -0.17735E-03   -0.51606E-03   955   0.950E-02    0.104E-01
RMM:   3    -0.136718800174E+04    0.12821E-03   -0.49578E-04   966   0.247E-02    0.322E-02
RMM:   4    -0.136718799751E+04    0.42266E-05   -0.65491E-05   999   0.907E-03    0.895E-03
RMM:   5    -0.136718799607E+04    0.14424E-05   -0.11704E-05   965   0.334E-03    0.302E-03
RMM:   6    -0.136718799585E+04    0.21465E-06   -0.94645E-07   599   0.119E-03
  90 F= -.13671880E+04 E0= -.13671880E+04  d E =-.202388E-02
       N       E                     dE             d eps       ncg     rms          rms(c)
DAV:   1    -0.136718892732E+04   -0.93125E-03   -0.42378E-01   954   0.961E-01    0.189E-01
RMM:   2    -0.136718913019E+04   -0.20287E-03   -0.59133E-03   956   0.102E-01    0.112E-01
RMM:   3    -0.136718898252E+04    0.14767E-03   -0.56397E-04   967   0.264E-02    0.345E-02
RMM:   4    -0.136718897752E+04    0.49971E-05   -0.74615E-05   998   0.967E-03    0.953E-03
RMM:   5    -0.136718897593E+04    0.15890E-05   -0.13316E-05   968   0.356E-03    0.321E-03
RMM:   6    -0.136718897570E+04    0.23683E-06   -0.10685E-06   600   0.126E-03
  91 F= -.13671890E+04 E0= -.13671890E+04  d E =-.300373E-02
       N       E                     dE             d eps       ncg     rms          rms(c)
DAV:   1    -0.136719109947E+04   -0.21235E-02   -0.33077E-01   964   0.846E-01    0.167E-01
RMM:   2    -0.136719125319E+04   -0.15372E-03   -0.45087E-03   955   0.888E-02    0.989E-02
RMM:   3    -0.136719113698E+04    0.11621E-03   -0.43114E-04   968   0.231E-02    0.288E-02
RMM:   4    -0.136719113409E+04    0.28841E-05   -0.53641E-05   999   0.821E-03    0.814E-03
RMM:   5    -0.136719113316E+04    0.93206E-06   -0.96526E-06   952   0.303E-03
  92 F= -.13671911E+04 E0= -.13671911E+04  d E =-.215746E-02
       N       E                     dE             d eps       ncg     rms          rms(c)
DAV:   1    -0.136719273025E+04   -0.15962E-02   -0.81070E-01   954   0.132E+00    0.261E-01
RMM:   2    -0.136719310607E+04   -0.37581E-03   -0.11013E-02   955   0.139E-01    0.155E-01
RMM:   3    -0.136719282166E+04    0.28440E-03   -0.10526E-03   965   0.361E-02    0.448E-02
RMM:   4    -0.136719281496E+04    0.67018E-05   -0.13206E-04  1002   0.129E-02    0.127E-02
RMM:   5    -0.136719281310E+04    0.18644E-05   -0.23706E-05   972   0.474E-03    0.435E-03
RMM:   6    -0.136719281272E+04    0.38072E-06   -0.20819E-06   615   0.171E-03
  93 F= -.13671928E+04 E0= -.13671928E+04  d E =-.383702E-02
       N       E                     dE             d eps       ncg     rms          rms(c)
DAV:   1    -0.136719533644E+04   -0.25233E-02   -0.43391E-01   964   0.966E-01    0.192E-01
RMM:   2    -0.136719551790E+04   -0.18146E-03   -0.57656E-03   955   0.998E-02    0.114E-01
RMM:   3    -0.136719536529E+04    0.15261E-03   -0.56310E-04   967   0.261E-02    0.318E-02
RMM:   4    -0.136719536236E+04    0.29291E-05   -0.67467E-05  1003   0.913E-03    0.927E-03
RMM:   5    -0.136719536142E+04    0.93952E-06   -0.12206E-05   958   0.339E-03    0.318E-03
RMM:   6    -0.136719536121E+04    0.21506E-06   -0.10684E-06   601   0.124E-03
  94 F= -.13671954E+04 E0= -.13671954E+04  d E =-.254849E-02
       N       E                     dE             d eps       ncg     rms          rms(c)
DAV:   1    -0.136719787775E+04   -0.25163E-02   -0.18601E+00   954   0.200E+00    0.397E-01
RMM:   2    -0.136719864852E+04   -0.77077E-03   -0.24702E-02   955   0.207E-01    0.236E-01
RMM:   3    -0.136719798846E+04    0.66006E-03   -0.24100E-03   966   0.541E-02    0.658E-02
RMM:   4    -0.136719797542E+04    0.13037E-04   -0.29081E-04  1004   0.189E-02    0.192E-02
RMM:   5    -0.136719797194E+04    0.34766E-05   -0.52708E-05   971   0.704E-03    0.666E-03
RMM:   6    -0.136719797122E+04    0.71976E-06   -0.53985E-06   797   0.254E-03
  95 F= -.13671980E+04 E0= -.13671980E+04  d E =-.515850E-02
       N       E                     dE             d eps       ncg     rms          rms(c)
DAV:   1    -0.136720010082E+04   -0.21289E-02   -0.31015E-01   996   0.813E-01    0.163E-01
RMM:   2    -0.136720021063E+04   -0.10981E-03   -0.38968E-03   956   0.815E-02    0.965E-02
RMM:   3    -0.136720010161E+04    0.10902E-03   -0.38868E-04   968   0.216E-02    0.247E-02
RMM:   4    -0.136720010012E+04    0.14924E-05   -0.42079E-05  1010   0.715E-03    0.750E-03
RMM:   5    -0.136720009959E+04    0.53103E-06   -0.73977E-06   891   0.268E-03
  96 F= -.13672001E+04 E0= -.13672001E+04  d E =-.212837E-02
       N       E                     dE             d eps       ncg     rms          rms(c)
DAV:   1    -0.136720466598E+04   -0.45659E-02   -0.27862E+00   954   0.244E+00    0.487E-01
RMM:   2    -0.136720563296E+04   -0.96698E-03   -0.34845E-02   955   0.244E-01    0.289E-01
RMM:   3    -0.136720464692E+04    0.98604E-03   -0.34780E-03   967   0.647E-02    0.734E-02
RMM:   4    -0.136720463317E+04    0.13748E-04   -0.37550E-04  1011   0.213E-02    0.223E-02
RMM:   5    -0.136720462964E+04    0.35331E-05   -0.67905E-05   973   0.803E-03    0.789E-03
RMM:   6    -0.136720462874E+04    0.90226E-06   -0.83929E-06   920   0.302E-03
  97 F= -.13672046E+04 E0= -.13672046E+04  d E =-.665751E-02
       N       E                     dE             d eps       ncg     rms          rms(c)
DAV:   1    -0.136720491883E+04   -0.28919E-03   -0.11104E+01   954   0.487E+00    0.973E-01
RMM:   2    -0.136720883698E+04   -0.39182E-02   -0.13998E-01   955   0.489E-01    0.578E-01
RMM:   3    -0.136720488524E+04    0.39517E-02   -0.13843E-02   969   0.129E-01    0.149E-01
RMM:   4    -0.136720482152E+04    0.63717E-04   -0.15070E-03  1005   0.430E-02    0.446E-02
RMM:   5    -0.136720480869E+04    0.12824E-04   -0.27694E-04   977   0.162E-02    0.160E-02
RMM:   6    -0.136720480558E+04    0.31185E-05   -0.34909E-05   993   0.608E-03    0.745E-03
RMM:   7    -0.136720480520E+04    0.37663E-06   -0.32634E-06   672   0.214E-03
  98 F= -.13672048E+04 E0= -.13672048E+04  d E =-.683398E-02
       N       E                     dE             d eps       ncg     rms          rms(c)
DAV:   1    -0.136720629174E+04   -0.14862E-02   -0.28461E+00   954   0.247E+00    0.493E-01
RMM:   2    -0.136720727147E+04   -0.97973E-03   -0.35342E-02   955   0.246E-01    0.292E-01
RMM:   3    -0.136720626686E+04    0.10046E-02   -0.34838E-03   966   0.651E-02    0.744E-02
RMM:   4    -0.136720625164E+04    0.15216E-04   -0.38130E-04  1008   0.216E-02    0.222E-02
RMM:   5    -0.136720624897E+04    0.26726E-05   -0.67042E-05   978   0.802E-03    0.787E-03
RMM:   6    -0.136720624863E+04    0.34049E-06   -0.81552E-06   914   0.299E-03
  99 F= -.13672062E+04 E0= -.13672062E+04  d E =-.827741E-02
       N       E                     dE             d eps       ncg     rms          rms(c)
DAV:   1    -0.136720814635E+04   -0.18974E-02   -0.30041E-01   980   0.797E-01    0.161E-01
RMM:   2    -0.136720823643E+04   -0.90074E-04   -0.35893E-03   955   0.778E-02    0.955E-02
RMM:   3    -0.136720812956E+04    0.10687E-03   -0.35693E-04   964   0.207E-02    0.225E-02
RMM:   4    -0.136720812838E+04    0.11779E-05   -0.37254E-05  1015   0.665E-03    0.705E-03
RMM:   5    -0.136720812799E+04    0.39173E-06   -0.62324E-06   823   0.247E-03
 100 F= -.13672081E+04 E0= -.13672081E+04  d E =-.187936E-02
       N       E                     dE             d eps       ncg     rms          rms(c)
DAV:   1    -0.136721287704E+04   -0.47487E-02   -0.27015E+00   954   0.239E+00    0.482E-01
RMM:   2    -0.136721372945E+04   -0.85242E-03   -0.32605E-02   956   0.234E-01    0.286E-01
RMM:   3    -0.136721277495E+04    0.95450E-03   -0.32067E-03   965   0.621E-02    0.685E-02
RMM:   4    -0.136721276506E+04    0.98852E-05   -0.34280E-04  1013   0.202E-02    0.211E-02
RMM:   5    -0.136721276286E+04    0.21992E-05   -0.59251E-05   978   0.746E-03    0.753E-03
RMM:   6    -0.136721276203E+04    0.83907E-06   -0.76554E-06   895   0.284E-03
 101 F= -.13672128E+04 E0= -.13672128E+04  d E =-.651340E-02
       N       E                     dE             d eps       ncg     rms          rms(c)
DAV:   1    -0.136721665481E+04   -0.38919E-02   -0.10760E+01   954   0.477E+00    0.961E-01
RMM:   2    -0.136722010021E+04   -0.34454E-02   -0.13097E-01   956   0.470E-01    0.571E-01
RMM:   3    -0.136721628728E+04    0.38129E-02   -0.12792E-02   968   0.124E-01    0.140E-01
RMM:   4    -0.136721623731E+04    0.49971E-04   -0.13643E-03  1011   0.406E-02    0.423E-02
RMM:   5    -0.136721622907E+04    0.82452E-05   -0.23992E-04   979   0.149E-02    0.152E-02
RMM:   6    -0.136721622623E+04    0.28397E-05   -0.31308E-05   994   0.569E-03    0.731E-03
RMM:   7    -0.136721622587E+04    0.35662E-06   -0.28524E-06   651   0.201E-03
 102 F= -.13672162E+04 E0= -.13672162E+04  d E =-.997724E-02
       N       E                     dE             d eps       ncg     rms          rms(c)
DAV:   1    -0.136722152739E+04   -0.53012E-02   -0.12339E+00   980   0.161E+00    0.326E-01
RMM:   2    -0.136722201292E+04   -0.48553E-03   -0.15667E-02   956   0.163E-01    0.194E-01
RMM:   3    -0.136722158398E+04    0.42894E-03   -0.14814E-03   968   0.424E-02    0.501E-02
RMM:   4    -0.136722157619E+04    0.77939E-05   -0.16561E-04  1007   0.143E-02    0.147E-02
RMM:   5    -0.136722157511E+04    0.10817E-05   -0.32286E-05   978   0.542E-03    0.551E-03
RMM:   6    -0.136722157459E+04    0.51800E-06   -0.36162E-06   687   0.207E-03
 103 F= -.13672216E+04 E0= -.13672216E+04  d E =-.534872E-02
       N       E                     dE             d eps       ncg     rms          rms(c)
DAV:   1    -0.136722744613E+04   -0.58710E-02   -0.64552E+00   954   0.369E+00    0.745E-01
RMM:   2    -0.136722996954E+04   -0.25234E-02   -0.82172E-02   956   0.373E-01    0.443E-01
RMM:   3    -0.136722771425E+04    0.22553E-02   -0.77006E-03   969   0.969E-02    0.115E-01
RMM:   4    -0.136722767138E+04    0.42869E-04   -0.86802E-04  1007   0.328E-02    0.335E-02
RMM:   5    -0.136722766598E+04    0.53980E-05   -0.16525E-04   978   0.123E-02    0.124E-02
RMM:   6    -0.136722766378E+04    0.22036E-05   -0.20937E-05   982   0.467E-03    0.595E-03
RMM:   7    -0.136722766362E+04    0.15927E-06   -0.18695E-06   606   0.171E-03
 104 F= -.13672277E+04 E0= -.13672277E+04  d E =-.114377E-01
       N       E                     dE             d eps       ncg     rms          rms(c)
DAV:   1    -0.136723448571E+04   -0.68219E-02   -0.59043E-01  1012   0.113E+00    0.222E-01
RMM:   2    -0.136723479952E+04   -0.31382E-03   -0.84544E-03   955   0.121E-01    0.130E-01
RMM:   3    -0.136723459368E+04    0.20585E-03   -0.79614E-04   964   0.310E-02    0.436E-02
RMM:   4    -0.136723458550E+04    0.81747E-05   -0.11570E-04   993   0.120E-02    0.115E-02
RMM:   5    -0.136723458372E+04    0.17850E-05   -0.21987E-05   970   0.449E-03    0.409E-03
RMM:   6    -0.136723458354E+04    0.17642E-06   -0.14509E-06   605   0.148E-03
 105 F= -.13672346E+04 E0= -.13672346E+04  d E =-.691992E-02
[...]
 142 F= -.13673506E+04 E0= -.13673506E+04  d E =-.138785E-02
       N       E                     dE             d eps       ncg     rms          rms(c)
DAV:   1    -0.136735057797E+04   -0.14369E-04   -0.47403E-03  1076   0.104E-01    0.191E-02
RMM:   2    -0.136735058180E+04   -0.38317E-05   -0.80850E-05   955   0.120E-02    0.114E-02
RMM:   3    -0.136735058027E+04    0.15365E-05   -0.73460E-06   935   0.305E-03    0.445E-03
RMM:   4    -0.136735058013E+04    0.13407E-06   -0.11133E-06   598   0.132E-03
 143 F= -.13673506E+04 E0= -.13673506E+04  d E =-.140460E-02
       N       E                     dE             d eps       ncg     rms          rms(c)
DAV:   1    -0.136735188502E+04   -0.13048E-02   -0.33542E-01   964   0.874E-01    0.163E-01
RMM:   2    -0.136735209545E+04   -0.21043E-03   -0.51513E-03   956   0.957E-02    0.949E-02
RMM:   3    -0.136735198339E+04    0.11206E-03   -0.48045E-04   963   0.244E-02    0.349E-02
RMM:   4    -0.136735197803E+04    0.53577E-05   -0.82945E-05   990   0.100E-02    0.906E-03
RMM:   5    -0.136735197651E+04    0.15222E-05   -0.12368E-05   973   0.345E-03    0.306E-03
RMM:   6    -0.136735197632E+04    0.19169E-06   -0.73721E-07   596   0.113E-03
 144 F= -.13673520E+04 E0= -.13673520E+04  d E =-.139618E-02
       N       E                     dE             d eps       ncg     rms          rms(c)
DAV:   1    -0.136735204161E+04   -0.65104E-04   -0.23692E-02   996   0.232E-01    0.431E-02
RMM:   2    -0.136735205684E+04   -0.15232E-04   -0.36587E-04   955   0.255E-02    0.252E-02
RMM:   3    -0.136735204914E+04    0.76983E-05   -0.34286E-05   967   0.650E-03    0.929E-03
RMM:   4    -0.136735204869E+04    0.45814E-06   -0.54791E-06   831   0.268E-03
 145 F= -.13673520E+04 E0= -.13673520E+04  d E =-.146855E-02
       N       E                     dE             d eps       ncg     rms          rms(c)
DAV:   1    -0.136735312478E+04   -0.10756E-02   -0.24548E-01   954   0.747E-01    0.144E-01
RMM:   2    -0.136735330383E+04   -0.17905E-03   -0.40919E-03   955   0.854E-02    0.848E-02
RMM:   3    -0.136735321936E+04    0.84474E-04   -0.39358E-04   966   0.219E-02    0.318E-02
RMM:   4    -0.136735321585E+04    0.35064E-05   -0.65356E-05   990   0.902E-03    0.878E-03
RMM:   5    -0.136735321470E+04    0.11491E-05   -0.11630E-05   969   0.329E-03    0.299E-03
RMM:   6    -0.136735321457E+04    0.12905E-06   -0.65271E-07   596   0.106E-03
 146 F= -.13673532E+04 E0= -.13673532E+04  d E =-.116589E-02
       N       E                     dE             d eps       ncg     rms          rms(c)
DAV:   1    -0.136735325923E+04   -0.44524E-04   -0.15109E-02  1028   0.185E-01    0.355E-02
RMM:   2    -0.136735327053E+04   -0.11303E-04   -0.25214E-04   957   0.211E-02    0.210E-02
RMM:   3    -0.136735326564E+04    0.48848E-05   -0.23786E-05   968   0.539E-03    0.787E-03
RMM:   4    -0.136735326545E+04    0.19775E-06   -0.34927E-06   669   0.222E-03
 147 F= -.13673533E+04 E0= -.13673533E+04  d E =-.121676E-02
       N       E                     dE             d eps       ncg     rms          rms(c)
DAV:   1    -0.136735420136E+04   -0.93572E-03   -0.28192E-01   954   0.801E-01    0.151E-01
RMM:   2    -0.136735440748E+04   -0.20612E-03   -0.46359E-03   955   0.911E-02    0.888E-02
RMM:   3    -0.136735431134E+04    0.96139E-04   -0.43057E-04   965   0.232E-02    0.337E-02
RMM:   4    -0.136735430710E+04    0.42396E-05   -0.75057E-05   989   0.966E-03    0.918E-03
RMM:   5    -0.136735430654E+04    0.56291E-06   -0.10910E-05   975   0.329E-03    0.302E-03
RMM:   6    -0.136735430652E+04    0.20853E-07   -0.67902E-07   596   0.109E-03
 148 F= -.13673543E+04 E0= -.13673543E+04  d E =-.104107E-02
       N       E                     dE             d eps       ncg     rms          rms(c)
DAV:   1    -0.136735432037E+04   -0.13836E-04   -0.61716E-03  1060   0.118E-01    0.222E-02
RMM:   2    -0.136735432520E+04   -0.48260E-05   -0.10290E-04   957   0.135E-02    0.131E-02
RMM:   3    -0.136735432330E+04    0.19030E-05   -0.93170E-06   959   0.343E-03    0.502E-03
RMM:   4    -0.136735432328E+04    0.17564E-07   -0.14080E-06   605   0.145E-03
 149 F= -.13673543E+04 E0= -.13673543E+04  d E =-.105783E-02
       N       E                     dE             d eps       ncg     rms          rms(c)
DAV:   1    -0.136735530044E+04   -0.97715E-03   -0.25520E-01   964   0.762E-01    0.145E-01
RMM:   2    -0.136735545290E+04   -0.15246E-03   -0.39010E-03   956   0.831E-02    0.836E-02
RMM:   3    -0.136735537094E+04    0.81964E-04   -0.37150E-04   965   0.214E-02    0.311E-02
RMM:   4    -0.136735536726E+04    0.36788E-05   -0.63362E-05   995   0.881E-03    0.813E-03
RMM:   5    -0.136735536646E+04    0.79966E-06   -0.96370E-06   964   0.304E-03
 150 F= -.13673554E+04 E0= -.13673554E+04  d E =-.104318E-02
       N       E                     dE             d eps       ncg     rms          rms(c)
DAV:   1    -0.136735543512E+04   -0.67863E-04   -0.30059E-02  1012   0.262E-01    0.494E-02
RMM:   2    -0.136735545355E+04   -0.18429E-04   -0.45629E-04   956   0.284E-02    0.286E-02
RMM:   3    -0.136735544446E+04    0.90896E-05   -0.44179E-05   964   0.739E-03    0.105E-02
RMM:   4    -0.136735544408E+04    0.38200E-06   -0.70163E-06   923   0.301E-03
 151 F= -.13673554E+04 E0= -.13673554E+04  d E =-.112080E-02
       N       E                     dE             d eps       ncg     rms          rms(c)
DAV:   1    -0.136735619312E+04   -0.74866E-03   -0.21355E-01   964   0.699E-01    0.133E-01
RMM:   2    -0.136735634371E+04   -0.15059E-03   -0.34389E-03   956   0.779E-02    0.770E-02
RMM:   3    -0.136735627808E+04    0.65632E-04   -0.31014E-04   967   0.198E-02    0.298E-02
RMM:   4    -0.136735627435E+04    0.37264E-05   -0.55201E-05   990   0.834E-03    0.741E-03
RMM:   5    -0.136735627341E+04    0.93653E-06   -0.78204E-06   942   0.278E-03
 152 F= -.13673563E+04 E0= -.13673563E+04  d E =-.829337E-03
       N       E                     dE             d eps       ncg     rms          rms(c)
DAV:   1    -0.136735629710E+04   -0.22753E-04   -0.74843E-03  1060   0.131E-01    0.245E-02
RMM:   2    -0.136735630254E+04   -0.54341E-05   -0.11970E-04   956   0.145E-02    0.144E-02
RMM:   3    -0.136735630046E+04    0.20789E-05   -0.11270E-05   968   0.376E-03    0.551E-03
RMM:   4    -0.136735630030E+04    0.15817E-06   -0.14931E-06   600   0.155E-03
 153 F= -.13673563E+04 E0= -.13673563E+04  d E =-.856223E-03
       N       E                     dE             d eps       ncg     rms          rms(c)
DAV:   1    -0.136735674255E+04   -0.44209E-03   -0.25433E-01   964   0.764E-01    0.138E-01
RMM:   2    -0.136735697642E+04   -0.23388E-03   -0.45964E-03   955   0.900E-02    0.827E-02
RMM:   3    -0.136735688901E+04    0.87413E-04   -0.39107E-04   964   0.224E-02    0.335E-02
RMM:   4    -0.136735688313E+04    0.58782E-05   -0.77966E-05   982   0.986E-03    0.856E-03
RMM:   5    -0.136735688207E+04    0.10674E-05   -0.95367E-06   961   0.314E-03    0.275E-03
RMM:   6    -0.136735688200E+04    0.65178E-07   -0.51932E-07   596   0.100E-03
 154 F= -.13673569E+04 E0= -.13673569E+04  d E =-.581701E-03
       N       E                     dE             d eps       ncg     rms          rms(c)
DAV:   1    -0.136735689623E+04   -0.14162E-04   -0.54576E-03   996   0.112E-01    0.202E-02
RMM:   2    -0.136735690119E+04   -0.49645E-05   -0.98242E-05   955   0.132E-02    0.121E-02
RMM:   3    -0.136735689929E+04    0.18970E-05   -0.84322E-06   950   0.330E-03    0.487E-03
RMM:   4    -0.136735689917E+04    0.12821E-06   -0.13972E-06   589   0.147E-03
 155 F= -.13673569E+04 E0= -.13673569E+04  d E =-.598867E-03
       N       E                     dE             d eps       ncg     rms          rms(c)
DAV:   1    -0.136735751078E+04   -0.61148E-03   -0.18423E-01   964   0.650E-01    0.123E-01
RMM:   2    -0.136735762638E+04   -0.11560E-03   -0.28418E-03   955   0.707E-02    0.703E-02
RMM:   3    -0.136735757005E+04    0.56322E-04   -0.25470E-04   966   0.179E-02    0.272E-02
RMM:   4    -0.136735756696E+04    0.30942E-05   -0.46415E-05   985   0.763E-03    0.663E-03
RMM:   5    -0.136735756646E+04    0.50053E-06   -0.62611E-06   871   0.251E-03
 156 F= -.13673576E+04 E0= -.13673576E+04  d E =-.667292E-03
       N       E                     dE             d eps       ncg     rms          rms(c)
DAV:   1    -0.136735758591E+04   -0.18947E-04   -0.81244E-03  1028   0.136E-01    0.256E-02
RMM:   2    -0.136735759127E+04   -0.53621E-05   -0.12550E-04   956   0.148E-02    0.147E-02
RMM:   3    -0.136735758901E+04    0.22605E-05   -0.11630E-05   967   0.382E-03    0.568E-03
RMM:   4    -0.136735758888E+04    0.12859E-06   -0.16437E-06   604   0.160E-03
 157 F= -.13673576E+04 E0= -.13673576E+04  d E =-.689713E-03
       N       E                     dE             d eps       ncg     rms          rms(c)
DAV:   1    -0.136735802802E+04   -0.43901E-03   -0.14318E-01   964   0.571E-01    0.109E-01
RMM:   2    -0.136735814130E+04   -0.11328E-03   -0.25552E-03   955   0.673E-02    0.651E-02
RMM:   3    -0.136735809432E+04    0.46983E-04   -0.24205E-04   966   0.173E-02    0.247E-02
RMM:   4    -0.136735809283E+04    0.14868E-05   -0.38343E-05   993   0.695E-03    0.686E-03
RMM:   5    -0.136735809241E+04    0.41754E-06   -0.57533E-06   862   0.245E-03
 158 F= -.13673581E+04 E0= -.13673581E+04  d E =-.503535E-03
       N       E                     dE             d eps       ncg     rms          rms(c)
DAV:   1    -0.136735809245E+04    0.38021E-06   -0.41461E-07   724   0.120E-03    0.888E-04
RMM:   2    -0.136735809248E+04   -0.32291E-07   -0.28429E-07   545   0.714E-04
 159 F= -.13673581E+04 E0= -.13673581E+04  d E =-.503604E-03
       N       E                     dE             d eps       ncg     rms          rms(c)
DAV:   1    -0.136735848593E+04   -0.39348E-03   -0.14004E-01   964   0.564E-01    0.107E-01
RMM:   2    -0.136735859923E+04   -0.11331E-03   -0.24946E-03   955   0.665E-02    0.633E-02
RMM:   3    -0.136735855122E+04    0.48009E-04   -0.22355E-04   963   0.168E-02    0.249E-02
RMM:   4    -0.136735854916E+04    0.20628E-05   -0.41157E-05   987   0.715E-03    0.675E-03
RMM:   5    -0.136735854875E+04    0.40878E-06   -0.57147E-06   859   0.244E-03
 160 F= -.13673585E+04 E0= -.13673585E+04  d E =-.456268E-03
       N       E                     dE             d eps       ncg     rms          rms(c)
DAV:   1    -0.136735854874E+04    0.41765E-06   -0.37356E-05  1116   0.924E-03    0.185E-03
RMM:   2    -0.136735854880E+04   -0.57524E-07   -0.77583E-07   557   0.125E-03
 161 F= -.13673585E+04 E0= -.13673585E+04  d E =-.456317E-03
       N       E                     dE             d eps       ncg     rms          rms(c)
DAV:   1    -0.136735894730E+04   -0.39856E-03   -0.86664E-02   964   0.443E-01    0.863E-02
RMM:   2    -0.136735900368E+04   -0.56386E-04   -0.13872E-03   956   0.496E-02    0.493E-02
RMM:   3    -0.136735897393E+04    0.29754E-04   -0.12087E-04   967   0.124E-02    0.190E-02
RMM:   4    -0.136735897168E+04    0.22551E-05   -0.23318E-05   977   0.540E-03    0.461E-03
RMM:   5    -0.136735897131E+04    0.36401E-06   -0.27647E-06   639   0.178E-03
 162 F= -.13673590E+04 E0= -.13673590E+04  d E =-.422511E-03
       N       E                     dE             d eps       ncg     rms          rms(c)
DAV:   1    -0.136735900229E+04   -0.30615E-04   -0.11887E-02   996   0.164E-01    0.316E-02
RMM:   2    -0.136735901002E+04   -0.77279E-05   -0.19036E-04   956   0.184E-02    0.181E-02
RMM:   3    -0.136735900587E+04    0.41485E-05   -0.17084E-05   971   0.463E-03    0.700E-03
RMM:   4    -0.136735900540E+04    0.47019E-06   -0.26468E-06   636   0.196E-03
 163 F= -.13673590E+04 E0= -.13673590E+04  d E =-.456599E-03
       N       E                     dE             d eps       ncg     rms          rms(c)
DAV:   1    -0.136735933202E+04   -0.32615E-03   -0.10373E-01   964   0.485E-01    0.894E-02
RMM:   2    -0.136735941001E+04   -0.77999E-04   -0.17194E-03   955   0.552E-02    0.525E-02
RMM:   3    -0.136735937577E+04    0.34247E-04   -0.15526E-04   966   0.141E-02    0.201E-02
RMM:   4    -0.136735937403E+04    0.17323E-05   -0.28307E-05   982   0.594E-03    0.517E-03
RMM:   5    -0.136735937358E+04    0.45440E-06   -0.33162E-06   661   0.195E-03
 164 F= -.13673594E+04 E0= -.13673594E+04  d E =-.368180E-03
       N       E                     dE             d eps       ncg     rms          rms(c)
DAV:   1    -0.136735937963E+04   -0.56004E-05   -0.21417E-03  1060   0.697E-02    0.127E-02
RMM:   2    -0.136735938136E+04   -0.17236E-05   -0.35806E-05   955   0.795E-03    0.751E-03
RMM:   3    -0.136735938071E+04    0.65107E-06   -0.30046E-06   647   0.207E-03
 165 F= -.13673594E+04 E0= -.13673594E+04  d E =-.375308E-03
       N       E                     dE             d eps       ncg     rms          rms(c)
DAV:   1    -0.136735969798E+04   -0.31662E-03   -0.77694E-02   964   0.421E-01    0.787E-02
RMM:   2    -0.136735975036E+04   -0.52376E-04   -0.12401E-03   955   0.470E-02    0.462E-02
RMM:   3    -0.136735972454E+04    0.25811E-04   -0.11322E-04   962   0.119E-02    0.173E-02
RMM:   4    -0.136735972338E+04    0.11622E-05   -0.19742E-05   980   0.497E-03    0.450E-03
RMM:   5    -0.136735972310E+04    0.27932E-06   -0.23404E-06   615   0.169E-03
 166 F= -.13673597E+04 E0= -.13673597E+04  d E =-.342395E-03
       N       E                     dE             d eps       ncg     rms          rms(c)
DAV:   1    -0.136735973665E+04   -0.13264E-04   -0.51948E-03  1028   0.109E-01    0.201E-02
RMM:   2    -0.136735974034E+04   -0.36971E-05   -0.83268E-05   955   0.122E-02    0.118E-02
RMM:   3    -0.136735973879E+04    0.15541E-05   -0.77828E-06   940   0.312E-03    0.447E-03
RMM:   4    -0.136735973873E+04    0.57953E-07   -0.11128E-06   601   0.131E-03
 167 F= -.13673597E+04 E0= -.13673597E+04  d E =-.358024E-03
       N       E                     dE             d eps       ncg     rms          rms(c)
DAV:   1    -0.136736004870E+04   -0.30991E-03   -0.62944E-02   964   0.375E-01    0.721E-02
RMM:   2    -0.136736008649E+04   -0.37793E-04   -0.99587E-04   956   0.421E-02    0.418E-02
RMM:   3    -0.136736006474E+04    0.21752E-04   -0.93829E-05   965   0.107E-02    0.154E-02
RMM:   4    -0.136736006368E+04    0.10534E-05   -0.15708E-05   973   0.440E-03    0.405E-03
RMM:   5    -0.136736006355E+04    0.12918E-06   -0.21084E-06   611   0.158E-03
 168 F= -.13673601E+04 E0= -.13673601E+04  d E =-.324824E-03
       N       E                     dE             d eps       ncg     rms          rms(c)
DAV:   1    -0.136736011326E+04   -0.49573E-04   -0.16823E-02   996   0.194E-01    0.370E-02
RMM:   2    -0.136736012335E+04   -0.10091E-04   -0.26521E-04   955   0.217E-02    0.215E-02
RMM:   3    -0.136736011758E+04    0.57657E-05   -0.25499E-05   964   0.559E-03    0.786E-03
RMM:   4    -0.136736011725E+04    0.33318E-06   -0.36939E-06   676   0.227E-03
 169 F= -.13673601E+04 E0= -.13673601E+04  d E =-.378518E-03
       N       E                     dE             d eps       ncg     rms          rms(c)
DAV:   1    -0.136736040979E+04   -0.29221E-03   -0.54744E-02   964   0.352E-01    0.670E-02
RMM:   2    -0.136736044955E+04   -0.39764E-04   -0.91504E-04   955   0.403E-02    0.393E-02
RMM:   3    -0.136736043033E+04    0.19218E-04   -0.84988E-05   963   0.103E-02    0.149E-02
RMM:   4    -0.136736042939E+04    0.94270E-06   -0.14363E-05   966   0.425E-03    0.409E-03
RMM:   5    -0.136736042924E+04    0.15623E-06   -0.21968E-06   614   0.160E-03
 170 F= -.13673604E+04 E0= -.13673604E+04  d E =-.311986E-03
       N       E                     dE             d eps       ncg     rms          rms(c)
DAV:   1    -0.136736045912E+04   -0.29730E-04   -0.11806E-02  1012   0.163E-01    0.309E-02
RMM:   2    -0.136736046768E+04   -0.85534E-05   -0.19593E-04   955   0.187E-02    0.182E-02
RMM:   3    -0.136736046365E+04    0.40294E-05   -0.18533E-05   966   0.477E-03    0.686E-03
RMM:   4    -0.136736046342E+04    0.22766E-06   -0.25495E-06   630   0.193E-03
 171 F= -.13673605E+04 E0= -.13673605E+04  d E =-.346169E-03
       N       E                     dE             d eps       ncg     rms          rms(c)
DAV:   1    -0.136736067833E+04   -0.21468E-03   -0.30761E-02   964   0.263E-01    0.493E-02
RMM:   2    -0.136736069674E+04   -0.18417E-04   -0.46445E-04   955   0.287E-02    0.288E-02
RMM:   3    -0.136736068642E+04    0.10327E-04   -0.44129E-05   965   0.735E-03    0.104E-02
RMM:   4    -0.136736068600E+04    0.41637E-06   -0.68342E-06   909   0.296E-03
 172 F= -.13673607E+04 E0= -.13673607E+04  d E =-.222583E-03
       N       E                     dE             d eps       ncg     rms          rms(c)
DAV:   1    -0.136736077856E+04   -0.92140E-04   -0.51326E-02   964   0.340E-01    0.637E-02
RMM:   2    -0.136736081093E+04   -0.32371E-04   -0.79072E-04   956   0.375E-02    0.374E-02
RMM:   3    -0.136736079362E+04    0.17314E-04   -0.74620E-05   965   0.958E-03    0.136E-02
RMM:   4    -0.136736079292E+04    0.69887E-06   -0.12233E-05   955   0.393E-03    0.370E-03
RMM:   5    -0.136736079282E+04    0.96494E-07   -0.18573E-06   612   0.148E-03
 173 F= -.13673608E+04 E0= -.13673608E+04  d E =-.329402E-03
       N       E                     dE             d eps       ncg     rms          rms(c)
DAV:   1    -0.136736102944E+04   -0.23652E-03   -0.34570E-02   964   0.278E-01    0.528E-02
RMM:   2    -0.136736105212E+04   -0.22686E-04   -0.54921E-04   955   0.312E-02    0.304E-02
RMM:   3    -0.136736104017E+04    0.11952E-04   -0.48650E-05   965   0.781E-03    0.114E-02
RMM:   4    -0.136736103936E+04    0.80801E-06   -0.84804E-06   943   0.329E-03
 174 F= -.13673610E+04 E0= -.13673610E+04  d E =-.246542E-03
       N       E                     dE             d eps       ncg     rms          rms(c)
DAV:   1    -0.136736111174E+04   -0.71569E-04   -0.32420E-02   980   0.269E-01    0.516E-02
RMM:   2    -0.136736113456E+04   -0.22820E-04   -0.53251E-04   956   0.307E-02    0.298E-02
RMM:   3    -0.136736112332E+04    0.11240E-04   -0.47014E-05   966   0.771E-03    0.114E-02
RMM:   4    -0.136736112255E+04    0.77468E-06   -0.85943E-06   941   0.334E-03
 175 F= -.13673611E+04 E0= -.13673611E+04  d E =-.329725E-03
       N       E                     dE             d eps       ncg     rms          rms(c)
DAV:   1    -0.136736131902E+04   -0.19570E-03   -0.35823E-02   964   0.285E-01    0.538E-02
RMM:   2    -0.136736134961E+04   -0.30595E-04   -0.63402E-04   956   0.335E-02    0.316E-02
RMM:   3    -0.136736133702E+04    0.12589E-04   -0.54984E-05   969   0.834E-03    0.129E-02
RMM:   4    -0.136736133616E+04    0.85872E-06   -0.10783E-05   948   0.372E-03    0.335E-03
RMM:   5    -0.136736133610E+04    0.66793E-07   -0.14644E-06   606   0.134E-03
 176 F= -.13673613E+04 E0= -.13673613E+04  d E =-.213551E-03
       N       E                     dE             d eps       ncg     rms          rms(c)
DAV:   1    -0.136736135719E+04   -0.21023E-04   -0.73234E-03   996   0.129E-01    0.241E-02
RMM:   2    -0.136736136336E+04   -0.61759E-05   -0.12777E-04   955   0.150E-02    0.142E-02
RMM:   3    -0.136736136084E+04    0.25195E-05   -0.11307E-05   968   0.376E-03    0.575E-03
RMM:   4    -0.136736136066E+04    0.18138E-06   -0.17768E-06   608   0.163E-03
 177 F= -.13673614E+04 E0= -.13673614E+04  d E =-.238116E-03
       N       E                     dE             d eps       ncg     rms          rms(c)
DAV:   1    -0.136736155849E+04   -0.19764E-03   -0.37129E-02   964   0.289E-01    0.541E-02
RMM:   2    -0.136736158573E+04   -0.27240E-04   -0.61069E-04   956   0.328E-02    0.312E-02
RMM:   3    -0.136736157325E+04    0.12477E-04   -0.53201E-05   965   0.813E-03    0.125E-02
RMM:   4    -0.136736157245E+04    0.80359E-06   -0.10351E-05   951   0.359E-03    0.319E-03
RMM:   5    -0.136736157236E+04    0.89960E-07   -0.13250E-06   605   0.128E-03
 178 F= -.13673616E+04 E0= -.13673616E+04  d E =-.211696E-03
