 216 216   0   0
  0.1036023E+02  0.1308000E-08  0.1308000E-08  0.1308000E-08  0.5000000E-15
  1.000000000000000E-004
  CAR 
 Silicon                                 
     16.49546927     -8.43205477 5000      8.34253832      1.00000000
     -8.432  0.0000E+00  0.0000E+00
     -8.427  0.0000E+00  0.0000E+00
     -8.422  0.0000E+00  0.0000E+00
     -8.417  0.0000E+00  0.0000E+00
     -8.412  0.0000E+00  0.0000E+00
     -8.407  0.0000E+00  0.0000E+00
     -8.402  0.0000E+00  0.0000E+00
     -8.397  0.0000E+00  0.0000E+00
     -8.392  0.0000E+00  0.0000E+00
     -8.387  0.0000E+00  0.0000E+00
     -8.382  0.0000E+00  0.0000E+00
     -8.377  0.0000E+00  0.0000E+00
     -8.372  0.0000E+00  0.0000E+00
     -8.367  0.0000E+00  0.0000E+00
     -8.362  0.0000E+00  0.0000E+00
     -8.357  0.0000E+00  0.0000E+00
     -8.352  0.0000E+00  0.0000E+00
     -8.347  0.0000E+00  0.0000E+00
     -8.342  0.0000E+00  0.0000E+00
     -8.337  0.0000E+00  0.0000E+00
     -8.332  0.0000E+00  0.0000E+00
     -8.327  0.0000E+00  0.0000E+00
     -8.322  0.0000E+00  0.0000E+00
     -8.317  0.0000E+00  0.0000E+00
     -8.312  0.0000E+00  0.0000E+00
     -8.307  0.0000E+00  0.0000E+00
     -8.302  0.0000E+00  0.0000E+00
     -8.297  0.0000E+00  0.0000E+00
     -8.292  0.0000E+00  0.0000E+00
     -8.287  0.0000E+00  0.0000E+00
     -8.282  0.0000E+00  0.0000E+00
     -8.277  0.0000E+00  0.0000E+00
     -8.272  0.0000E+00  0.0000E+00
     -8.268  0.0000E+00  0.0000E+00
     -8.263  0.0000E+00  0.0000E+00
     -8.258  0.0000E+00  0.0000E+00
     -8.253  0.0000E+00  0.0000E+00
     -8.248  0.0000E+00  0.0000E+00
     -8.243  0.0000E+00  0.0000E+00
     -8.238  0.0000E+00  0.0000E+00
     -8.233  0.0000E+00  0.0000E+00
     -8.228  0.0000E+00  0.0000E+00
     -8.223  0.0000E+00  0.0000E+00
     -8.218  0.0000E+00  0.0000E+00
     -8.213  0.0000E+00  0.0000E+00
     -8.208  0.0000E+00  0.0000E+00
     -8.203  0.0000E+00  0.0000E+00
     -8.198  0.0000E+00  0.0000E+00
     -8.193  0.0000E+00  0.0000E+00
     -8.188  0.0000E+00  0.0000E+00
     -8.183  0.0000E+00  0.0000E+00
     -8.178  0.0000E+00  0.0000E+00
     -8.173  0.0000E+00  0.0000E+00
     -8.168  0.0000E+00  0.0000E+00
     -8.163  0.0000E+00  0.0000E+00
     -8.158  0.0000E+00  0.0000E+00
     -8.153  0.0000E+00  0.0000E+00
     -8.148  0.0000E+00  0.0000E+00
     -8.143  0.0000E+00  0.0000E+00
     -8.138  0.0000E+00  0.0000E+00
     -8.133  0.0000E+00  0.0000E+00
     -8.128  0.0000E+00  0.0000E+00
     -8.123  0.0000E+00  0.0000E+00
     -8.118  0.0000E+00  0.0000E+00
     -8.113  0.0000E+00  0.0000E+00
     -8.108  0.0000E+00  0.0000E+00
     -8.103  0.0000E+00  0.0000E+00
     -8.098  0.0000E+00  0.0000E+00
     -8.093  0.0000E+00  0.0000E+00
     -8.088  0.0000E+00  0.0000E+00
     -8.083  0.0000E+00  0.0000E+00
     -8.078  0.0000E+00  0.0000E+00
     -8.073  0.0000E+00  0.0000E+00
     -8.068  0.0000E+00  0.0000E+00
     -8.063  0.0000E+00  0.0000E+00
     -8.058  0.0000E+00  0.0000E+00
     -8.053  0.0000E+00  0.0000E+00
     -8.048  0.0000E+00  0.0000E+00
     -8.043  0.0000E+00  0.0000E+00
     -8.038  0.0000E+00  0.0000E+00
     -8.033  0.0000E+00  0.0000E+00
     -8.028  0.0000E+00  0.0000E+00
     -8.023  0.0000E+00  0.0000E+00
     -8.018  0.0000E+00  0.0000E+00
     -8.013  0.0000E+00  0.0000E+00
     -8.008  0.0000E+00  0.0000E+00
     -8.003  0.0000E+00  0.0000E+00
     -7.998  0.0000E+00  0.0000E+00
     -7.993  0.0000E+00  0.0000E+00
     -7.988  0.0000E+00  0.0000E+00
     -7.983  0.0000E+00  0.0000E+00
     -7.978  0.0000E+00  0.0000E+00
     -7.973  0.0000E+00  0.0000E+00
     -7.968  0.0000E+00  0.0000E+00
     -7.963  0.0000E+00  0.0000E+00
     -7.958  0.0000E+00  0.0000E+00
     -7.953  0.0000E+00  0.0000E+00
     -7.948  0.0000E+00  0.0000E+00
     -7.943  0.0000E+00  0.0000E+00
     -7.938  0.0000E+00  0.0000E+00
     -7.933  0.0000E+00  0.0000E+00
     -7.928  0.0000E+00  0.0000E+00
     -7.923  0.0000E+00  0.0000E+00
     -7.918  0.0000E+00  0.0000E+00
     -7.913  0.0000E+00  0.0000E+00
     -7.908  0.0000E+00  0.0000E+00
     -7.903  0.0000E+00  0.0000E+00
     -7.898  0.0000E+00  0.0000E+00
     -7.894  0.0000E+00  0.0000E+00
     -7.889  0.0000E+00  0.0000E+00
     -7.884  0.0000E+00  0.0000E+00
     -7.879  0.0000E+00  0.0000E+00
     -7.874  0.0000E+00  0.0000E+00
     -7.869  0.0000E+00  0.0000E+00
     -7.864  0.0000E+00  0.0000E+00
     -7.859  0.0000E+00  0.0000E+00
     -7.854  0.0000E+00  0.0000E+00
     -7.849  0.0000E+00  0.0000E+00
     -7.844  0.0000E+00  0.0000E+00
     -7.839  0.0000E+00  0.0000E+00
     -7.834  0.0000E+00  0.0000E+00
     -7.829  0.0000E+00  0.0000E+00
     -7.824  0.0000E+00  0.0000E+00
     -7.819  0.0000E+00  0.0000E+00
     -7.814  0.0000E+00  0.0000E+00
     -7.809  0.0000E+00  0.0000E+00
     -7.804  0.0000E+00  0.0000E+00
     -7.799  0.0000E+00  0.0000E+00
     -7.794  0.0000E+00  0.0000E+00
     -7.789  0.0000E+00  0.0000E+00
     -7.784  0.0000E+00  0.0000E+00
     -7.779  0.0000E+00  0.0000E+00
     -7.774  0.0000E+00  0.0000E+00
     -7.769  0.0000E+00  0.0000E+00
     -7.764  0.0000E+00  0.0000E+00
     -7.759  0.0000E+00  0.0000E+00
     -7.754  0.0000E+00  0.0000E+00
     -7.749  0.0000E+00  0.0000E+00
     -7.744  0.0000E+00  0.0000E+00
     -7.739  0.0000E+00  0.0000E+00
     -7.734  0.0000E+00  0.0000E+00
     -7.729  0.0000E+00  0.0000E+00
     -7.724  0.0000E+00  0.0000E+00
     -7.719  0.0000E+00  0.0000E+00
     -7.714  0.0000E+00  0.0000E+00
     -7.709  0.0000E+00  0.0000E+00
     -7.704  0.0000E+00  0.0000E+00
     -7.699  0.0000E+00  0.0000E+00
     -7.694  0.0000E+00  0.0000E+00
     -7.689  0.0000E+00  0.0000E+00
     -7.684  0.0000E+00  0.0000E+00
     -7.679  0.0000E+00  0.0000E+00
     -7.674  0.0000E+00  0.0000E+00
     -7.669  0.0000E+00  0.0000E+00
     -7.664  0.0000E+00  0.0000E+00
     -7.659  0.0000E+00  0.0000E+00
     -7.654  0.0000E+00  0.0000E+00
     -7.649  0.0000E+00  0.0000E+00
     -7.644  0.0000E+00  0.0000E+00
     -7.639  0.0000E+00  0.0000E+00
     -7.634  0.0000E+00  0.0000E+00
     -7.629  0.0000E+00  0.0000E+00
     -7.624  0.0000E+00  0.0000E+00
     -7.619  0.0000E+00  0.0000E+00
     -7.614  0.0000E+00  0.0000E+00
     -7.609  0.0000E+00  0.0000E+00
     -7.604  0.0000E+00  0.0000E+00
     -7.599  0.0000E+00  0.0000E+00
     -7.594  0.1113E-15  0.5551E-18
     -7.589  0.1113E-15  0.1110E-17
     -7.584  0.4453E-15  0.3331E-17
     -7.579  0.1559E-14  0.1110E-16
     -7.574  0.4564E-14  0.3386E-16
     -7.569  0.1369E-13  0.1021E-15
     -7.564  0.4008E-13  0.3020E-15
     -7.559  0.1156E-12  0.8782E-15
     -7.554  0.3261E-12  0.2504E-14
     -7.549  0.9018E-12  0.7001E-14
     -7.544  0.2445E-11  0.1919E-13
     -7.539  0.6500E-11  0.5160E-13
     -7.534  0.1694E-10  0.1361E-12
     -7.529  0.4327E-10  0.3518E-12
     -7.525  0.1084E-09  0.8922E-12
     -7.520  0.2661E-09  0.2219E-11
     -7.515  0.6404E-09  0.5412E-11
     -7.510  0.1511E-08  0.1295E-10
     -7.505  0.3495E-08  0.3038E-10
     -7.500  0.7926E-08  0.6990E-10
     -7.495  0.1762E-07  0.1578E-09
     -7.490  0.3840E-07  0.3492E-09
     -7.485  0.8204E-07  0.7584E-09
     -7.480  0.1718E-06  0.1615E-08
     -7.475  0.3528E-06  0.3375E-08
     -7.470  0.7102E-06  0.6916E-08
     -7.465  0.1402E-05  0.1391E-07
     -7.460  0.2711E-05  0.2743E-07
     -7.455  0.5142E-05  0.5307E-07
     -7.450  0.9561E-05  0.1007E-06
     -7.445  0.1743E-04  0.1876E-06
     -7.440  0.3114E-04  0.3429E-06
     -7.435  0.5454E-04  0.6149E-06
     -7.430  0.9366E-04  0.1082E-05
     -7.425  0.1577E-03  0.1868E-05
     -7.420  0.2602E-03  0.3166E-05
     -7.415  0.4210E-03  0.5265E-05
     -7.410  0.6678E-03  0.8595E-05
     -7.405  0.1038E-02  0.1377E-04
     -7.400  0.1583E-02  0.2166E-04
     -7.395  0.2365E-02  0.3346E-04
     -7.390  0.3465E-02  0.5074E-04
     -7.385  0.4976E-02  0.7555E-04
     -7.380  0.7006E-02  0.1105E-03
     -7.375  0.9670E-02  0.1587E-03
     -7.370  0.1308E-01  0.2240E-03
     -7.365  0.1736E-01  0.3105E-03
     -7.360  0.2257E-01  0.4231E-03
     -7.355  0.2878E-01  0.5665E-03
     -7.350  0.3596E-01  0.7459E-03
     -7.345  0.4406E-01  0.9656E-03
     -7.340  0.5292E-01  0.1229E-02
     -7.335  0.6232E-01  0.1540E-02
     -7.330  0.7193E-01  0.1899E-02
     -7.325  0.8140E-01  0.2305E-02
     -7.320  0.9031E-01  0.2755E-02
     -7.315  0.9822E-01  0.3245E-02
     -7.310  0.1047E+00  0.3767E-02
     -7.305  0.1095E+00  0.4313E-02
     -7.300  0.1122E+00  0.4872E-02
     -7.295  0.1127E+00  0.5434E-02
     -7.290  0.1109E+00  0.5987E-02
     -7.285  0.1071E+00  0.6521E-02
     -7.280  0.1014E+00  0.7027E-02
     -7.275  0.9405E-01  0.7496E-02
     -7.270  0.8555E-01  0.7922E-02
     -7.265  0.7628E-01  0.8303E-02
     -7.260  0.6668E-01  0.8635E-02
     -7.255  0.5714E-01  0.8920E-02
     -7.250  0.4801E-01  0.9160E-02
     -7.245  0.3954E-01  0.9357E-02
     -7.240  0.3192E-01  0.9516E-02
     -7.235  0.2527E-01  0.9642E-02
     -7.230  0.1961E-01  0.9740E-02
     -7.225  0.1491E-01  0.9814E-02
     -7.220  0.1112E-01  0.9869E-02
     -7.215  0.8131E-02  0.9910E-02
     -7.210  0.5828E-02  0.9939E-02
     -7.205  0.4095E-02  0.9959E-02
     -7.200  0.2820E-02  0.9974E-02
     -7.195  0.1904E-02  0.9983E-02
     -7.190  0.1261E-02  0.9989E-02
     -7.185  0.8181E-03  0.9993E-02
     -7.180  0.5205E-03  0.9996E-02
     -7.175  0.3246E-03  0.9998E-02
     -7.170  0.1985E-03  0.9999E-02
     -7.165  0.1190E-03  0.9999E-02
     -7.160  0.6991E-04  0.1000E-01
     -7.156  0.4027E-04  0.1000E-01
     -7.151  0.2274E-04  0.1000E-01
     -7.146  0.1259E-04  0.1000E-01
     -7.141  0.6834E-05  0.1000E-01
     -7.136  0.3636E-05  0.1000E-01
     -7.131  0.1896E-05  0.1000E-01
     -7.126  0.9698E-06  0.1000E-01
     -7.121  0.4861E-06  0.1000E-01
     -7.116  0.2389E-06  0.1000E-01
     -7.111  0.1151E-06  0.1000E-01
     -7.106  0.5436E-07  0.1000E-01
     -7.101  0.2517E-07  0.1000E-01
     -7.096  0.1142E-07  0.1000E-01
     -7.091  0.5084E-08  0.1000E-01
     -7.086  0.2218E-08  0.1000E-01
     -7.081  0.9484E-09  0.1000E-01
     -7.076  0.3976E-09  0.1000E-01
     -7.071  0.1634E-09  0.1000E-01
     -7.066  0.6584E-10  0.1000E-01
     -7.061  0.2601E-10  0.1000E-01
     -7.056  0.1007E-10  0.1000E-01
     -7.051  0.3823E-11  0.1000E-01
     -7.046  0.1423E-11  0.1000E-01
     -7.041  0.5190E-12  0.1000E-01
     -7.036  0.1857E-12  0.1000E-01
     -7.031  0.6501E-13  0.1000E-01
     -7.026  0.2249E-13  0.1000E-01
     -7.021  0.7570E-14  0.1000E-01
     -7.016  0.2226E-14  0.1000E-01
     -7.011  0.8906E-15  0.1000E-01
     -7.006  0.4453E-15  0.1000E-01
     -7.001  0.0000E+00  0.1000E-01
     -6.996  0.0000E+00  0.1000E-01
     -6.991  0.0000E+00  0.1000E-01
     -6.986  0.0000E+00  0.1000E-01
     -6.981  0.0000E+00  0.1000E-01
     -6.976  0.0000E+00  0.1000E-01
     -6.971  0.0000E+00  0.1000E-01
     -6.966  0.0000E+00  0.1000E-01
     -6.961  0.0000E+00  0.1000E-01
     -6.956  0.0000E+00  0.1000E-01
     -6.951  0.0000E+00  0.1000E-01
     -6.946  0.0000E+00  0.1000E-01
     -6.941  0.0000E+00  0.1000E-01
     -6.936  0.0000E+00  0.1000E-01
     -6.931  0.0000E+00  0.1000E-01
     -6.926  0.0000E+00  0.1000E-01
     -6.921  0.0000E+00  0.1000E-01
     -6.916  0.0000E+00  0.1000E-01
     -6.911  0.0000E+00  0.1000E-01
     -6.906  0.0000E+00  0.1000E-01
     -6.901  0.0000E+00  0.1000E-01
     -6.896  0.0000E+00  0.1000E-01
     -6.891  0.0000E+00  0.1000E-01
     -6.886  0.0000E+00  0.1000E-01
     -6.881  0.0000E+00  0.1000E-01
     -6.876  0.6679E-15  0.1000E-01
     -6.871  0.6679E-15  0.1000E-01
     -6.866  0.2004E-14  0.1000E-01
     -6.861  0.8015E-14  0.1000E-01
     -6.856  0.2405E-13  0.1000E-01
     -6.851  0.7214E-13  0.1000E-01
     -6.846  0.2114E-12  0.1000E-01
     -6.841  0.6105E-12  0.1000E-01
     -6.836  0.1727E-11  0.1000E-01
     -6.831  0.4787E-11  0.1000E-01
     -6.826  0.1301E-10  0.1000E-01
     -6.821  0.3467E-10  0.1000E-01
     -6.816  0.9056E-10  0.1000E-01
     -6.811  0.2319E-09  0.1000E-01
     -6.806  0.5822E-09  0.1000E-01
     -6.801  0.1433E-08  0.1000E-01
     -6.796  0.3457E-08  0.1000E-01
     -6.791  0.8177E-08  0.1000E-01
     -6.787  0.1896E-07  0.1000E-01
     -6.782  0.4310E-07  0.1000E-01
     -6.777  0.9605E-07  0.1000E-01
     -6.772  0.2098E-06  0.1000E-01
     -6.767  0.4494E-06  0.1000E-01
     -6.762  0.9435E-06  0.1000E-01
     -6.757  0.1942E-05  0.1000E-01
     -6.752  0.3919E-05  0.1000E-01
     -6.747  0.7751E-05  0.1000E-01
     -6.742  0.1503E-04  0.1000E-01
     -6.737  0.2858E-04  0.1000E-01
     -6.732  0.5326E-04  0.1000E-01
     -6.727  0.9731E-04  0.1000E-01
     -6.722  0.1743E-03  0.1000E-01
     -6.717  0.3060E-03  0.1000E-01
     -6.712  0.5268E-03  0.1001E-01
     -6.707  0.8890E-03  0.1001E-01
     -6.702  0.1471E-02  0.1002E-01
     -6.697  0.2385E-02  0.1003E-01
     -6.692  0.3792E-02  0.1005E-01
     -6.687  0.5911E-02  0.1008E-01
     -6.682  0.9032E-02  0.1012E-01
     -6.677  0.1353E-01  0.1019E-01
     -6.672  0.1987E-01  0.1029E-01
     -6.667  0.2860E-01  0.1043E-01
     -6.662  0.4037E-01  0.1063E-01
     -6.657  0.5585E-01  0.1091E-01
     -6.652  0.7576E-01  0.1129E-01
     -6.647  0.1007E+00  0.1179E-01
     -6.642  0.1313E+00  0.1245E-01
     -6.637  0.1678E+00  0.1328E-01
     -6.632  0.2102E+00  0.1433E-01
     -6.627  0.2582E+00  0.1562E-01
     -6.622  0.3109E+00  0.1717E-01
     -6.617  0.3669E+00  0.1900E-01
     -6.612  0.4246E+00  0.2112E-01
     -6.607  0.4817E+00  0.2352E-01
     -6.602  0.5356E+00  0.2619E-01
     -6.597  0.5839E+00  0.2910E-01
     -6.592  0.6241E+00  0.3221E-01
     -6.587  0.6539E+00  0.3547E-01
     -6.582  0.6716E+00  0.3882E-01
     -6.577  0.6763E+00  0.4220E-01
     -6.572  0.6676E+00  0.4552E-01
     -6.567  0.6461E+00  0.4875E-01
     -6.562  0.6129E+00  0.5180E-01
     -6.557  0.5701E+00  0.5465E-01
     -6.552  0.5198E+00  0.5724E-01
     -6.547  0.4646E+00  0.5955E-01
     -6.542  0.4071E+00  0.6158E-01
     -6.537  0.3497E+00  0.6333E-01
     -6.532  0.2945E+00  0.6480E-01
     -6.527  0.2431E+00  0.6601E-01
     -6.522  0.1968E+00  0.6699E-01
     -6.517  0.1561E+00  0.6777E-01
     -6.512  0.1214E+00  0.6837E-01
     -6.507  0.9261E-01  0.6884E-01
     -6.502  0.6923E-01  0.6918E-01
     -6.497  0.5073E-01  0.6943E-01
     -6.492  0.3645E-01  0.6962E-01
     -6.487  0.2567E-01  0.6974E-01
     -6.482  0.1772E-01  0.6983E-01
     -6.477  0.1200E-01  0.6989E-01
     -6.472  0.7961E-02  0.6993E-01
     -6.467  0.5179E-02  0.6996E-01
     -6.462  0.3303E-02  0.6997E-01
     -6.457  0.2065E-02  0.6998E-01
     -6.452  0.1266E-02  0.6999E-01
     -6.447  0.7604E-03  0.6999E-01
     -6.442  0.4479E-03  0.7000E-01
     -6.437  0.2586E-03  0.7000E-01
     -6.432  0.1464E-03  0.7000E-01
     -6.427  0.8125E-04  0.7000E-01
     -6.422  0.4421E-04  0.7000E-01
     -6.418  0.2358E-04  0.7000E-01
     -6.413  0.1233E-04  0.7000E-01
     -6.408  0.6319E-05  0.7000E-01
     -6.403  0.3175E-05  0.7000E-01
     -6.398  0.1564E-05  0.7000E-01
     -6.393  0.7554E-06  0.7000E-01
     -6.388  0.3576E-06  0.7000E-01
     -6.383  0.1660E-06  0.7000E-01
     -6.378  0.7553E-07  0.7000E-01
     -6.373  0.3369E-07  0.7000E-01
     -6.368  0.1473E-07  0.7000E-01
     -6.363  0.6315E-08  0.7000E-01
     -6.358  0.2654E-08  0.7000E-01
     -6.353  0.1093E-08  0.7000E-01
     -6.348  0.4416E-09  0.7000E-01
     -6.343  0.1749E-09  0.7000E-01
     -6.338  0.6787E-10  0.7000E-01
     -6.333  0.2583E-10  0.7000E-01
     -6.328  0.9634E-11  0.7000E-01
     -6.323  0.3523E-11  0.7000E-01
     -6.318  0.1264E-11  0.7000E-01
     -6.313  0.4435E-12  0.7000E-01
     -6.308  0.1523E-12  0.7000E-01
     -6.303  0.5210E-13  0.7000E-01
     -6.298  0.1737E-13  0.7000E-01
     -6.293  0.5343E-14  0.7000E-01
     -6.288  0.2672E-14  0.7000E-01
     -6.283  0.0000E+00  0.7000E-01
     -6.278  0.0000E+00  0.7000E-01
     -6.273  0.0000E+00  0.7000E-01
     -6.268  0.0000E+00  0.7000E-01
     -6.263  0.0000E+00  0.7000E-01
     -6.258  0.0000E+00  0.7000E-01
     -6.253  0.0000E+00  0.7000E-01
     -6.248  0.0000E+00  0.7000E-01
     -6.243  0.0000E+00  0.7000E-01
     -6.238  0.0000E+00  0.7000E-01
     -6.233  0.0000E+00  0.7000E-01
     -6.228  0.0000E+00  0.7000E-01
     -6.223  0.0000E+00  0.7000E-01
     -6.218  0.0000E+00  0.7000E-01
     -6.213  0.0000E+00  0.7000E-01
     -6.208  0.0000E+00  0.7000E-01
     -6.203  0.0000E+00  0.7000E-01
     -6.198  0.0000E+00  0.7000E-01
     -6.193  0.0000E+00  0.7000E-01
     -6.188  0.0000E+00  0.7000E-01
     -6.183  0.0000E+00  0.7000E-01
     -6.178  0.1336E-14  0.7000E-01
     -6.173  0.4008E-14  0.7000E-01
     -6.168  0.1202E-13  0.7000E-01
     -6.163  0.3874E-13  0.7000E-01
     -6.158  0.1135E-12  0.7000E-01
     -6.153  0.3366E-12  0.7000E-01
     -6.148  0.9759E-12  0.7000E-01
     -6.143  0.2772E-11  0.7000E-01
     -6.138  0.7716E-11  0.7000E-01
     -6.133  0.2106E-10  0.7000E-01
     -6.128  0.5636E-10  0.7000E-01
     -6.123  0.1479E-09  0.7000E-01
     -6.118  0.3802E-09  0.7000E-01
     -6.113  0.9586E-09  0.7000E-01
     -6.108  0.2369E-08  0.7000E-01
     -6.103  0.5740E-08  0.7000E-01
     -6.098  0.1364E-07  0.7000E-01
     -6.093  0.3175E-07  0.7000E-01
     -6.088  0.7248E-07  0.7000E-01
     -6.083  0.1622E-06  0.7000E-01
     -6.078  0.3559E-06  0.7000E-01
     -6.073  0.7654E-06  0.7000E-01
     -6.068  0.1614E-05  0.7000E-01
     -6.063  0.3336E-05  0.7000E-01
     -6.058  0.6759E-05  0.7000E-01
     -6.053  0.1343E-04  0.7000E-01
     -6.049  0.2615E-04  0.7000E-01
     -6.044  0.4992E-04  0.7000E-01
     -6.039  0.9344E-04  0.7000E-01
     -6.034  0.1714E-03  0.7000E-01
     -6.029  0.3084E-03  0.7000E-01
     -6.024  0.5438E-03  0.7001E-01
     -6.019  0.9400E-03  0.7001E-01
     -6.014  0.1593E-02  0.7002E-01
     -6.009  0.2647E-02  0.7003E-01
     -6.004  0.4310E-02  0.7005E-01
     -5.999  0.6882E-02  0.7009E-01
     -5.994  0.1077E-01  0.7014E-01
     -5.989  0.1653E-01  0.7022E-01
     -5.984  0.2487E-01  0.7035E-01
     -5.979  0.3667E-01  0.7053E-01
     -5.974  0.5302E-01  0.7080E-01
     -5.969  0.7515E-01  0.7117E-01
     -5.964  0.1044E+00  0.7169E-01
     -5.959  0.1422E+00  0.7240E-01
     -5.954  0.1899E+00  0.7335E-01
     -5.949  0.2486E+00  0.7459E-01
     -5.944  0.3191E+00  0.7618E-01
     -5.939  0.4014E+00  0.7818E-01
     -5.934  0.4951E+00  0.8065E-01
     -5.929  0.5986E+00  0.8363E-01
     -5.924  0.7096E+00  0.8717E-01
     -5.919  0.8246E+00  0.9128E-01
     -5.914  0.9393E+00  0.9597E-01
     -5.909  0.1049E+01  0.1012E+00
     -5.904  0.1148E+01  0.1069E+00
     -5.899  0.1233E+01  0.1131E+00
     -5.894  0.1297E+01  0.1195E+00
     -5.889  0.1338E+01  0.1262E+00
     -5.884  0.1353E+01  0.1330E+00
     -5.879  0.1341E+01  0.1396E+00
     -5.874  0.1303E+01  0.1461E+00
     -5.869  0.1242E+01  0.1523E+00
     -5.864  0.1160E+01  0.1581E+00
     -5.859  0.1062E+01  0.1634E+00
     -5.854  0.9533E+00  0.1682E+00
     -5.849  0.8389E+00  0.1724E+00
     -5.844  0.7237E+00  0.1760E+00
     -5.839  0.6120E+00  0.1790E+00
     -5.834  0.5074E+00  0.1815E+00
     -5.829  0.4124E+00  0.1836E+00
     -5.824  0.3286E+00  0.1852E+00
     -5.819  0.2567E+00  0.1865E+00
     -5.814  0.1966E+00  0.1875E+00
     -5.809  0.1476E+00  0.1882E+00
     -5.804  0.1086E+00  0.1888E+00
     -5.799  0.7835E-01  0.1892E+00
     -5.794  0.5542E-01  0.1894E+00
     -5.789  0.3843E-01  0.1896E+00
     -5.784  0.2612E-01  0.1898E+00
     -5.779  0.1741E-01  0.1899E+00
     -5.774  0.1137E-01  0.1899E+00
     -5.769  0.7282E-02  0.1899E+00
     -5.764  0.4572E-02  0.1900E+00
     -5.759  0.2814E-02  0.1900E+00
     -5.754  0.1698E-02  0.1900E+00
     -5.749  0.1004E-02  0.1900E+00
     -5.744  0.5825E-03  0.1900E+00
     -5.739  0.3311E-03  0.1900E+00
     -5.734  0.1845E-03  0.1900E+00
     -5.729  0.1008E-03  0.1900E+00
     -5.724  0.5401E-04  0.1900E+00
     -5.719  0.2836E-04  0.1900E+00
     -5.714  0.1460E-04  0.1900E+00
     -5.709  0.7366E-05  0.1900E+00
     -5.704  0.3644E-05  0.1900E+00
     -5.699  0.1767E-05  0.1900E+00
     -5.694  0.8403E-06  0.1900E+00
     -5.689  0.3916E-06  0.1900E+00
     -5.684  0.1790E-06  0.1900E+00
     -5.680  0.8016E-07  0.1900E+00
     -5.675  0.3520E-07  0.1900E+00
     -5.670  0.1515E-07  0.1900E+00
     -5.665  0.6396E-08  0.1900E+00
     -5.660  0.2646E-08  0.1900E+00
     -5.655  0.1073E-08  0.1900E+00
     -5.650  0.4268E-09  0.1900E+00
     -5.645  0.1664E-09  0.1900E+00
     -5.640  0.6357E-10  0.1900E+00
     -5.635  0.2381E-10  0.1900E+00
     -5.630  0.8748E-11  0.1900E+00
     -5.625  0.3149E-11  0.1900E+00
     -5.620  0.1112E-11  0.1900E+00
     -5.615  0.3834E-12  0.1900E+00
     -5.610  0.1302E-12  0.1900E+00
     -5.605  0.4275E-13  0.1900E+00
     -5.600  0.1603E-13  0.1900E+00
     -5.595  0.2672E-14  0.1900E+00
     -5.590  0.2672E-14  0.1900E+00
     -5.585  0.0000E+00  0.1900E+00
     -5.580  0.0000E+00  0.1900E+00
     -5.575  0.0000E+00  0.1900E+00
     -5.570  0.0000E+00  0.1900E+00
     -5.565  0.0000E+00  0.1900E+00
     -5.560  0.0000E+00  0.1900E+00
     -5.555  0.0000E+00  0.1900E+00
     -5.550  0.0000E+00  0.1900E+00
     -5.545  0.0000E+00  0.1900E+00
     -5.540  0.0000E+00  0.1900E+00
     -5.535  0.0000E+00  0.1900E+00
     -5.530  0.8906E-15  0.1900E+00
     -5.525  0.1670E-14  0.1900E+00
     -5.520  0.4564E-14  0.1900E+00
     -5.515  0.1514E-13  0.1900E+00
     -5.510  0.4620E-13  0.1900E+00
     -5.505  0.1376E-12  0.1900E+00
     -5.500  0.4024E-12  0.1900E+00
     -5.495  0.1154E-11  0.1900E+00
     -5.490  0.3242E-11  0.1900E+00
     -5.485  0.8928E-11  0.1900E+00
     -5.480  0.2411E-10  0.1900E+00
     -5.475  0.6381E-10  0.1900E+00
     -5.470  0.1656E-09  0.1900E+00
     -5.465  0.4212E-09  0.1900E+00
     -5.460  0.1051E-08  0.1900E+00
     -5.455  0.2568E-08  0.1900E+00
     -5.450  0.6156E-08  0.1900E+00
     -5.445  0.1446E-07  0.1900E+00
     -5.440  0.3332E-07  0.1900E+00
     -5.435  0.7524E-07  0.1900E+00
     -5.430  0.1666E-06  0.1900E+00
     -5.425  0.3615E-06  0.1900E+00
     -5.420  0.7690E-06  0.1900E+00
     -5.415  0.1604E-05  0.1900E+00
     -5.410  0.3280E-05  0.1900E+00
     -5.405  0.6574E-05  0.1900E+00
     -5.400  0.1292E-04  0.1900E+00
     -5.395  0.2489E-04  0.1900E+00
     -5.390  0.4700E-04  0.1900E+00
     -5.385  0.8701E-04  0.1900E+00
     -5.380  0.1579E-03  0.1900E+00
     -5.375  0.2810E-03  0.1900E+00
     -5.370  0.4901E-03  0.1900E+00
     -5.365  0.8382E-03  0.1900E+00
     -5.360  0.1405E-02  0.1900E+00
     -5.355  0.2309E-02  0.1900E+00
     -5.350  0.3720E-02  0.1900E+00
     -5.345  0.5876E-02  0.1901E+00
     -5.340  0.9098E-02  0.1901E+00
     -5.335  0.1381E-01  0.1902E+00
     -5.330  0.2055E-01  0.1903E+00
     -5.325  0.2998E-01  0.1904E+00
     -5.320  0.4288E-01  0.1907E+00
     -5.315  0.6011E-01  0.1910E+00
     -5.311  0.8262E-01  0.1914E+00
     -5.306  0.1113E+00  0.1919E+00
     -5.301  0.1471E+00  0.1927E+00
     -5.296  0.1904E+00  0.1936E+00
     -5.291  0.2417E+00  0.1948E+00
     -5.286  0.3009E+00  0.1963E+00
     -5.281  0.3671E+00  0.1981E+00
     -5.276  0.4390E+00  0.2003E+00
     -5.271  0.5148E+00  0.2029E+00
     -5.266  0.5917E+00  0.2058E+00
     -5.261  0.6668E+00  0.2092E+00
     -5.256  0.7367E+00  0.2128E+00
     -5.251  0.7978E+00  0.2168E+00
     -5.246  0.8470E+00  0.2210E+00
     -5.241  0.8816E+00  0.2254E+00
     -5.236  0.8996E+00  0.2299E+00
     -5.231  0.8999E+00  0.2344E+00
     -5.226  0.8824E+00  0.2388E+00
     -5.221  0.8483E+00  0.2430E+00
     -5.216  0.7995E+00  0.2470E+00
     -5.211  0.7387E+00  0.2507E+00
     -5.206  0.6690E+00  0.2541E+00
     -5.201  0.5941E+00  0.2570E+00
     -5.196  0.5171E+00  0.2596E+00
     -5.191  0.4413E+00  0.2618E+00
     -5.186  0.3692E+00  0.2636E+00
     -5.181  0.3028E+00  0.2651E+00
     -5.176  0.2434E+00  0.2664E+00
     -5.171  0.1919E+00  0.2673E+00
     -5.166  0.1483E+00  0.2681E+00
     -5.161  0.1123E+00  0.2686E+00
     -5.156  0.8340E-01  0.2690E+00
     -5.151  0.6072E-01  0.2693E+00
     -5.146  0.4333E-01  0.2696E+00
     -5.141  0.3032E-01  0.2697E+00
     -5.136  0.2080E-01  0.2698E+00
     -5.131  0.1398E-01  0.2699E+00
     -5.126  0.9217E-02  0.2699E+00
     -5.121  0.5957E-02  0.2700E+00
     -5.116  0.3774E-02  0.2700E+00
     -5.111  0.2344E-02  0.2700E+00
     -5.106  0.1427E-02  0.2700E+00
     -5.101  0.8517E-03  0.2700E+00
     -5.096  0.4984E-03  0.2700E+00
     -5.091  0.2859E-03  0.2700E+00
     -5.086  0.1608E-03  0.2700E+00
     -5.081  0.8863E-04  0.2700E+00
     -5.076  0.4790E-04  0.2700E+00
     -5.071  0.2538E-04  0.2700E+00
     -5.066  0.1318E-04  0.2700E+00
     -5.061  0.6712E-05  0.2700E+00
     -5.056  0.3351E-05  0.2700E+00
     -5.051  0.1640E-05  0.2700E+00
     -5.046  0.7867E-06  0.2700E+00
     -5.041  0.3700E-06  0.2700E+00
     -5.036  0.1706E-06  0.2700E+00
     -5.031  0.7710E-07  0.2700E+00
     -5.026  0.3417E-07  0.2700E+00
     -5.021  0.1484E-07  0.2700E+00
     -5.016  0.6320E-08  0.2700E+00
     -5.011  0.2639E-08  0.2700E+00
     -5.006  0.1080E-08  0.2700E+00
     -5.001  0.4333E-09  0.2700E+00
     -4.996  0.1704E-09  0.2700E+00
     -4.991  0.6571E-10  0.2700E+00
     -4.986  0.2484E-10  0.2700E+00
     -4.981  0.9206E-11  0.2700E+00
     -4.976  0.3344E-11  0.2700E+00
     -4.971  0.1191E-11  0.2700E+00
     -4.966  0.4152E-12  0.2700E+00
     -4.961  0.1425E-12  0.2700E+00
     -4.956  0.4809E-13  0.2700E+00
     -4.951  0.1603E-13  0.2700E+00
     -4.946  0.3562E-14  0.2700E+00
     -4.942  0.3562E-14  0.2700E+00
     -4.937  0.0000E+00  0.2700E+00
     -4.932  0.0000E+00  0.2700E+00
     -4.927  0.0000E+00  0.2700E+00
     -4.922  0.0000E+00  0.2700E+00
     -4.917  0.0000E+00  0.2700E+00
     -4.912  0.0000E+00  0.2700E+00
     -4.907  0.0000E+00  0.2700E+00
     -4.902  0.0000E+00  0.2700E+00
     -4.897  0.0000E+00  0.2700E+00
     -4.892  0.0000E+00  0.2700E+00
     -4.887  0.0000E+00  0.2700E+00
     -4.882  0.0000E+00  0.2700E+00
     -4.877  0.0000E+00  0.2700E+00
     -4.872  0.0000E+00  0.2700E+00
     -4.867  0.0000E+00  0.2700E+00
     -4.862  0.0000E+00  0.2700E+00
     -4.857  0.0000E+00  0.2700E+00
     -4.852  0.0000E+00  0.2700E+00
     -4.847  0.0000E+00  0.2700E+00
     -4.842  0.0000E+00  0.2700E+00
     -4.837  0.0000E+00  0.2700E+00
     -4.832  0.0000E+00  0.2700E+00
     -4.827  0.0000E+00  0.2700E+00
     -4.822  0.6679E-15  0.2700E+00
     -4.817  0.6679E-15  0.2700E+00
     -4.812  0.4008E-14  0.2700E+00
     -4.807  0.1102E-13  0.2700E+00
     -4.802  0.3373E-13  0.2700E+00
     -4.797  0.1005E-12  0.2700E+00
     -4.792  0.2948E-12  0.2700E+00
     -4.787  0.8453E-12  0.2700E+00
     -4.782  0.2375E-11  0.2700E+00
     -4.777  0.6545E-11  0.2700E+00
     -4.772  0.1768E-10  0.2700E+00
     -4.767  0.4682E-10  0.2700E+00
     -4.762  0.1215E-09  0.2700E+00
     -4.757  0.3094E-09  0.2700E+00
     -4.752  0.7718E-09  0.2700E+00
     -4.747  0.1888E-08  0.2700E+00
     -4.742  0.4527E-08  0.2700E+00
     -4.737  0.1064E-07  0.2700E+00
     -4.732  0.2452E-07  0.2700E+00
     -4.727  0.5540E-07  0.2700E+00
     -4.722  0.1227E-06  0.2700E+00
     -4.717  0.2664E-06  0.2700E+00
     -4.712  0.5670E-06  0.2700E+00
     -4.707  0.1183E-05  0.2700E+00
     -4.702  0.2420E-05  0.2700E+00
     -4.697  0.4854E-05  0.2700E+00
     -4.692  0.9542E-05  0.2700E+00
     -4.687  0.1839E-04  0.2700E+00
     -4.682  0.3475E-04  0.2700E+00
     -4.677  0.6436E-04  0.2700E+00
     -4.672  0.1169E-03  0.2700E+00
     -4.667  0.2080E-03  0.2700E+00
     -4.662  0.3630E-03  0.2700E+00
     -4.657  0.6211E-03  0.2700E+00
     -4.652  0.1042E-02  0.2700E+00
     -4.647  0.1713E-02  0.2700E+00
     -4.642  0.2761E-02  0.2700E+00
     -4.637  0.4362E-02  0.2701E+00
     -4.632  0.6757E-02  0.2701E+00
     -4.627  0.1026E-01  0.2701E+00
     -4.622  0.1528E-01  0.2702E+00
     -4.617  0.2230E-01  0.2703E+00
     -4.612  0.3190E-01  0.2705E+00
     -4.607  0.4475E-01  0.2707E+00
     -4.602  0.6153E-01  0.2710E+00
     -4.597  0.8295E-01  0.2714E+00
     -4.592  0.1096E+00  0.2720E+00
     -4.587  0.1420E+00  0.2727E+00
     -4.582  0.1804E+00  0.2736E+00
     -4.577  0.2246E+00  0.2747E+00
     -4.573  0.2741E+00  0.2761E+00
     -4.568  0.3280E+00  0.2777E+00
     -4.563  0.3848E+00  0.2796E+00
     -4.558  0.4425E+00  0.2818E+00
     -4.553  0.4989E+00  0.2843E+00
     -4.548  0.5514E+00  0.2871E+00
     -4.543  0.5974E+00  0.2900E+00
     -4.538  0.6345E+00  0.2932E+00
     -4.533  0.6608E+00  0.2965E+00
     -4.528  0.6745E+00  0.2999E+00
     -4.523  0.6750E+00  0.3032E+00
     -4.518  0.6623E+00  0.3065E+00
     -4.513  0.6370E+00  0.3097E+00
     -4.508  0.6006E+00  0.3127E+00
     -4.503  0.5551E+00  0.3155E+00
     -4.498  0.5030E+00  0.3180E+00
     -4.493  0.4469E+00  0.3202E+00
     -4.488  0.3892E+00  0.3222E+00
     -4.483  0.3323E+00  0.3238E+00
     -4.478  0.2781E+00  0.3252E+00
     -4.473  0.2282E+00  0.3263E+00
     -4.468  0.1835E+00  0.3273E+00
     -4.463  0.1447E+00  0.3280E+00
     -4.458  0.1119E+00  0.3285E+00
     -4.453  0.8479E-01  0.3290E+00
     -4.448  0.6299E-01  0.3293E+00
     -4.443  0.4588E-01  0.3295E+00
     -4.438  0.3276E-01  0.3297E+00
     -4.433  0.2293E-01  0.3298E+00
     -4.428  0.1574E-01  0.3299E+00
     -4.423  0.1059E-01  0.3299E+00
     -4.418  0.6981E-02  0.3299E+00
     -4.413  0.4513E-02  0.3300E+00
     -4.408  0.2861E-02  0.3300E+00
     -4.403  0.1777E-02  0.3300E+00
     -4.398  0.1083E-02  0.3300E+00
     -4.393  0.6465E-03  0.3300E+00
     -4.388  0.3785E-03  0.3300E+00
     -4.383  0.2172E-03  0.3300E+00
     -4.378  0.1222E-03  0.3300E+00
     -4.373  0.6740E-04  0.3300E+00
     -4.368  0.3644E-04  0.3300E+00
     -4.363  0.1932E-04  0.3300E+00
     -4.358  0.1004E-04  0.3300E+00
     -4.353  0.5114E-05  0.3300E+00
     -4.348  0.2554E-05  0.3300E+00
     -4.343  0.1250E-05  0.3300E+00
     -4.338  0.6002E-06  0.3300E+00
     -4.333  0.2824E-06  0.3300E+00
     -4.328  0.1303E-06  0.3300E+00
     -4.323  0.5890E-07  0.3300E+00
     -4.318  0.2611E-07  0.3300E+00