  216  216  200    1
  0.1036023E+02  0.1308000E-08  0.1308000E-08  0.1308000E-08  0.5000000E-15
  1.000000000000000E-004
  CAR 
 Silicon                                 
    864      1    541
 
  0.0000000E+00  0.0000000E+00  0.0000000E+00  0.1000000E+01
    1       -7.298985   1.000000
    2       -6.580327   1.000000
    3       -6.580327   1.000000
    4       -6.580327   1.000000
    5       -6.580321   1.000000
    6       -6.580321   1.000000
    7       -6.580321   1.000000
    8       -5.886143   1.000000
    9       -5.886143   1.000000
   10       -5.886143   1.000000
   11       -5.886139   1.000000
   12       -5.886139   1.000000
   13       -5.886139   1.000000
   14       -5.886139   1.000000
   15       -5.886139   1.000000
   16       -5.886139   1.000000
   17       -5.886127   1.000000
   18       -5.886127   1.000000
   19       -5.886127   1.000000
   20       -5.235643   1.000000
   21       -5.235643   1.000000
   22       -5.235643   1.000000
   23       -5.235643   1.000000
   24       -5.235623   1.000000
   25       -5.235623   1.000000
   26       -5.235623   1.000000
   27       -5.235606   1.000000
   28       -4.527506   1.000000
   29       -4.527506   1.000000
   30       -4.527497   1.000000
   31       -4.527364   1.000000
   32       -4.527364   1.000000
   33       -4.527364   1.000000
   34       -3.954060   1.000000
   35       -3.954060   1.000000
   36       -3.954060   1.000000
   37       -3.954044   1.000000
   38       -3.954044   1.000000
   39       -3.954044   1.000000
   40       -3.954019   1.000000
   41       -3.954019   1.000000
   42       -3.954019   1.000000
   43       -3.954013   1.000000
   44       -3.954013   1.000000
   45       -3.954013   1.000000
   46       -3.953902   1.000000
   47       -3.953902   1.000000
   48       -3.953902   1.000000
   49       -3.953902   1.000000
   50       -3.953902   1.000000
   51       -3.953902   1.000000
   52       -3.953895   1.000000
   53       -3.953895   1.000000
   54       -3.953895   1.000000
   55       -3.953895   1.000000
   56       -3.953895   1.000000
   57       -3.953895   1.000000
   58       -3.595214   1.000000
   59       -3.595214   1.000000
   60       -3.595214   1.000000
   61       -3.595163   1.000000
   62       -3.595163   1.000000
   63       -3.595163   1.000000
   64       -3.595163   1.000000
   65       -3.595163   1.000000
   66       -3.595163   1.000000
   67       -3.595113   1.000000
   68       -3.595113   1.000000
   69       -3.595113   1.000000
   70       -3.595042   1.000000
   71       -3.595042   1.000000
   72       -3.595042   1.000000
   73       -3.595038   1.000000
   74       -3.595038   1.000000
   75       -3.595038   1.000000
   76       -3.595038   1.000000
   77       -3.595038   1.000000
   78       -3.595038   1.000000
   79       -3.595014   1.000000
   80       -3.595014   1.000000
   81       -3.595014   1.000000
   82       -2.673350   1.000000
   83       -2.673350   1.000000
   84       -2.673337   1.000000
   85       -2.673247   1.000000
   86       -2.673247   1.000000
   87       -2.673247   1.000000
   88       -2.673240   1.000000
   89       -2.673240   1.000000
   90       -2.673240   1.000000
   91       -2.673134   1.000000
   92       -2.673134   1.000000
   93       -2.673134   1.000000
   94       -2.287754   1.000000
   95       -2.287754   1.000000
   96       -2.287754   1.000000
   97       -2.119434   1.000000
   98       -2.119434   1.000000
   99       -2.119434   1.000000
  100       -2.119428   1.000000
  101       -2.119428   1.000000
  102       -2.119428   1.000000
  103       -2.119375   1.000000
  104       -2.119375   1.000000
  105       -2.119375   1.000000
  106       -2.119375   1.000000
  107       -2.119375   1.000000
  108       -2.119375   1.000000
  109        0.303755   1.000000
  110        0.303755   1.000000
  111        0.303755   1.000000
  112        0.331205   1.000000
  113        0.331205   1.000000
  114        0.331205   1.000000
  115        0.331233   1.000000
  116        0.331233   1.000000
  117        0.331233   1.000000
  118        0.331301   1.000000
  119        0.331301   1.000000
  120        0.331301   1.000000
  121        0.331301   1.000000
  122        0.331301   1.000000
  123        0.331301   1.000000
  124        0.331318   1.000000
  125        0.331318   1.000000
  126        0.331318   1.000000
  127        0.331318   1.000000
  128        0.331318   1.000000
  129        0.331318   1.000000
  130        0.331397   1.000000
  131        0.331397   1.000000
  132        0.331397   1.000000
  133        0.331403   1.000000
  134        0.331403   1.000000
  135        0.331403   1.000000
  136        0.811670   1.000000
  137        0.811670   1.000000
  138        0.811670   1.000000
  139        0.811701   1.000000
  140        0.811701   1.000000
  141        0.811701   1.000000
  142        0.811701   1.000000
  143        0.811701   1.000000
  144        0.811701   1.000000
  145        0.811703   1.000000
  146        0.811703   1.000000
  147        0.811703   1.000000
  148        1.060777   1.000000
  149        1.060777   1.000000
  150        1.060790   1.000000
  151        1.060790   1.000000
  152        1.060790   1.000000
  153        1.060791   1.000000
  154        1.060791   1.000000
  155        1.060791   1.000000
  156        1.060818   1.000000
  157        1.060821   1.000000
  158        1.060821   1.000000
  159        1.060821   1.000000
  160        1.925204   1.000000
  161        1.925346   1.000000
  162        1.925346   1.000000
  163        1.925346   1.000000
  164        1.925448   1.000000
  165        1.925448   1.000000
  166        1.925448   1.000000
  167        1.925586   1.000000
  168        2.144816   1.000000
  169        2.144816   1.000000
  170        2.144816   1.000000
  171        2.144816   1.000000
  172        2.144816   1.000000
  173        2.144816   1.000000
  174        2.144828   1.000000
  175        2.144828   1.000000
  176        2.144828   1.000000
  177        2.144852   1.000000
  178        2.144852   1.000000
  179        2.144852   1.000000
  180        2.144882   1.000000
  181        2.144882   1.000000
  182        2.144882   1.000000
  183        2.144882   1.000000
  184        2.144882   1.000000
  185        2.144882   1.000000
  186        2.144905   1.000000
  187        2.144905   1.000000
  188        2.144905   1.000000
  189        2.144934   1.000000
  190        2.144934   1.000000
  191        2.144934   1.000000
  192        2.470207   1.000000
  193        2.470207   1.000000
  194        2.470207   1.000000
  195        2.470273   1.000000
  196        2.470273   1.000000
  197        2.470273   1.000000
  198        2.470274   1.000000
  199        2.470274   1.000000
  200        2.470274   1.000000
  201        2.470297   1.000000
  202        2.470297   1.000000
  203        2.470334   1.000000
  204        3.039941   1.000000
  205        3.039941   1.000000
  206        3.039941   1.000000
  207        3.039987   1.000000
  208        3.039987   1.000000
  209        3.040002   1.000000
  210        3.595340   1.000000
  211        3.595340   1.000000
  212        3.595340   1.000000
  213        3.595352   1.000000
  214        3.595352   1.000000
  215        3.595352   1.000000
  216        3.595401   1.000000
  217        3.595401   1.000000
  218        3.595401   1.000000
  219        3.595401   1.000000
  220        3.595401   1.000000
  221        3.595401   1.000000
  222        3.719117   1.000000
  223        3.719117   1.000000
  224        3.719117   1.000000
  225        3.719135   1.000000
  226        3.719135   1.000000
  227        3.719135   1.000000
  228        3.719160   1.000000
  229        3.719160   1.000000
  230        3.719160   1.000000
  231        3.719160   1.000000
  232        3.719160   1.000000
  233        3.719160   1.000000
  234        4.000783   1.000000
  235        4.000783   1.000000
  236        4.000783   1.000000
  237        4.000783   1.000000
  238        4.000783   1.000000
  239        4.000783   1.000000
  240        4.000838   1.000000
  241        4.000838   1.000000
  242        4.000838   1.000000
  243        4.000846   1.000000
  244        4.000846   1.000000
  245        4.000846   1.000000
  246        4.000866   1.000000
  247        4.000866   1.000000
  248        4.000866   1.000000
  249        4.000866   1.000000
  250        4.000866   1.000000
  251        4.000866   1.000000
  252        4.000912   1.000000
  253        4.000912   1.000000
  254        4.000912   1.000000
  255        4.000944   1.000000
  256        4.000944   1.000000
  257        4.000944   1.000000
  258        4.190910   1.000000
  259        4.190910   1.000000
  260        4.190910   1.000000
  261        4.191014   1.000000
  262        4.191014   1.000000
  263        4.191014   1.000000
  264        4.191014   1.000000
  265        4.191014   1.000000
  266        4.191014   1.000000
  267        4.191119   1.000000
  268        4.191119   1.000000
  269        4.191119   1.000000
  270        4.913419   1.000000
  271        4.913419   1.000000
  272        4.913419   1.000000
  273        4.913419   1.000000
  274        4.913419   1.000000
  275        4.913419   1.000000
  276        5.325019   1.000000
  277        5.325019   1.000000
  278        5.325019   1.000000
  279        5.325020   1.000000
  280        5.325020   1.000000
  281        5.325020   1.000000
  282        5.325072   1.000000
  283        5.325072   1.000000
  284        5.325072   1.000000
  285        5.325072   1.000000
  286        5.325072   1.000000
  287        5.325072   1.000000
  288        5.325085   1.000000
  289        5.325085   1.000000
  290        5.325085   1.000000
  291        5.325085   1.000000
  292        5.325085   1.000000
  293        5.325085   1.000000
  294        5.325115   1.000000
  295        5.325115   1.000000
  296        5.325115   1.000000
  297        5.325150   1.000000
  298        5.325150   1.000000
  299        5.325150   1.000000
  300        5.492761   1.000000
  301        5.492761   1.000000
  302        5.492761   1.000000
  303        5.492768   1.000000
  304        5.492768   1.000000
  305        5.492768   1.000000
  306        5.492818   1.000000
  307        5.492818   1.000000
  308        5.492818   1.000000
  309        5.492832   1.000000
  310        5.492832   1.000000
  311        5.492832   1.000000
  312        5.666254   1.000000
  313        5.666254   1.000000
  314        5.666254   1.000000
  315        5.666371   1.000000
  316        5.666371   1.000000
  317        5.666371   1.000000
  318        5.666371   1.000000
  319        5.666371   1.000000
  320        5.666371   1.000000
  321        5.666475   1.000000
  322        5.666475   1.000000
  323        5.666475   1.000000
  324        5.681553   1.000000
  325        5.681553   1.000000
  326        5.681553   1.000000
  327        5.681559   1.000000
  328        5.681559   1.000000
  329        5.681559   1.000000
  330        5.681562   1.000000
  331        5.681562   1.000000
  332        5.681562   1.000000
  333        5.681573   1.000000
  334        5.681573   1.000000
  335        5.681573   1.000000
  336        5.681606   1.000000
  337        5.681606   1.000000
  338        5.681606   1.000000
  339        5.681606   1.000000
  340        5.681606   1.000000
  341        5.681606   1.000000
  342        5.681623   1.000000
  343        5.681623   1.000000
  344        5.681623   1.000000
  345        5.681623   1.000000
  346        5.681623   1.000000
  347        5.681623   1.000000
  348        5.927277   1.000000
  349        5.927277   1.000000
  350        5.927311   1.000000
  351        5.927351   1.000000
  352        5.927351   1.000000
  353        5.927351   1.000000
  354        5.927384   1.000000
  355        5.927384   1.000000
  356        5.927384   1.000000
  357        5.927419   1.000000
  358        5.927419   1.000000
  359        5.927419   1.000000
  360        6.301795   1.000000
  361        6.301795   1.000000
  362        6.301795   1.000000
  363        6.301859   1.000000
  364        6.301859   1.000000
  365        6.301859   1.000000
  366        6.348256   1.000000
  367        6.348256   1.000000
  368        6.348256   1.000000
  369        6.348314   1.000000
  370        6.348314   1.000000
  371        6.348314   1.000000
  372        6.348330   1.000000
  373        6.348330   1.000000
  374        6.348330   1.000000
  375        6.348330   1.000000
  376        6.348330   1.000000
  377        6.348330   1.000000
  378        6.348395   1.000000
  379        6.348395   1.000000
  380        6.348395   1.000000
  381        6.348404   1.000000
  382        6.348404   1.000000
  383        6.348404   1.000000
  384        6.348404   1.000000
  385        6.348404   1.000000
  386        6.348404   1.000000
  387        6.348448   1.000000
  388        6.348448   1.000000
  389        6.348448   1.000000
  390        6.992984   1.000000
  391        6.992984   1.000000
  392        6.992984   1.000000
  393        6.992984   1.000000
  394        6.992984   1.000000
  395        6.992984   1.000000
  396        6.993141   1.000000
  397        6.993141   1.000000
  398        6.993141   1.000000
  399        6.993141   1.000000
  400        6.993141   1.000000
  401        6.993141   1.000000
  402        7.258251   1.000000
  403        7.258251   1.000000
  404        7.258288   1.000000
  405        7.258288   1.000000
  406        7.258288   1.000000
  407        7.258345   1.000000
  408        7.258345   1.000000
  409        7.258345   1.000000
  410        7.258413   1.000000
  411        7.258413   1.000000
  412        7.258413   1.000000
  413        7.258484   1.000000
  414        7.258484   1.000000
  415        7.258484   1.000000
  416        7.258484   1.000000
  417        7.258484   1.000000
  418        7.723325   1.000000
  419        7.723325   1.000000
  420        7.723325   1.000000
  421        7.723374   1.000000
  422        7.723374   1.000000
  423        7.723374   1.000000
  424        7.723374   1.000000
  425        7.723374   1.000000
  426        7.723374   1.000000
  427        7.723404   1.000000
  428        7.723404   1.000000
  429        7.723404   1.000000
  430        8.106031   1.000000
  431        8.106031   1.000000
  432        8.106031   1.000000
  433        9.451541   0.000000
  434        9.451541   0.000000
  435        9.451541   0.000000
  436       10.731058   0.000000
  437       10.731058   0.000000
  438       10.731058   0.000000
  439       10.731060   0.000000
  440       10.731060   0.000000
  441       10.731081   0.000000
  442       11.918063   0.000000
  443       11.918063   0.000000
  444       11.918069   0.000000
  445       11.918126   0.000000
  446       11.918126   0.000000
  447       11.918126   0.000000
  448       11.918134   0.000000
  449       11.918134   0.000000
  450       11.918134   0.000000
  451       11.918176   0.000000
  452       11.918176   0.000000
  453       11.918176   0.000000
  454       12.088303   0.000000
  455       12.088303   0.000000
  456       12.088303   0.000000
  457       12.088306   0.000000
  458       12.088306   0.000000
  459       12.088306   0.000000
  460       12.088362   0.000000
  461       12.088362   0.000000
  462       12.088362   0.000000
  463       12.088362   0.000000
  464       12.088362   0.000000
  465       12.088362   0.000000
  466       12.413024   0.000000
  467       12.413024   0.000000
  468       12.413024   0.000000
  469       12.929247   0.000000
  470       12.929247   0.000000
  471       12.929248   0.000000
  472       12.929262   0.000000
  473       12.929262   0.000000
  474       12.929263   0.000000
  475       12.929288   0.000000
  476       12.929288   0.000000
  477       12.929289   0.000000
  478       12.929289   0.000000
  479       12.929289   0.000000
  480       12.929291   0.000000
  481       12.929336   0.000000
  482       12.929336   0.000000
  483       12.929336   0.000000
  484       12.929337   0.000000
  485       12.929337   0.000000
  486       12.929338   0.000000
  487       12.929341   0.000000
  488       12.929341   0.000000
  489       12.929344   0.000000
  490       12.929360   0.000000
  491       12.929361   0.000000
  492       12.929361   0.000000
  493       12.992041   0.000000
  494       12.992041   0.000000
  495       12.992042   0.000000
  496       12.992052   0.000000
  497       12.992053   0.000000
  498       12.992054   0.000000
  499       12.992061   0.000000
  500       12.992061   0.000000
  501       12.992061   0.000000
  502       12.992061   0.000000
  503       12.992062   0.000000
  504       12.992067   0.000000
  505       12.992096   0.000000
  506       12.992096   0.000000
  507       12.992098   0.000000
  508       12.992100   0.000000
  509       12.992100   0.000000
  510       12.992104   0.000000
  511       12.992117   0.000000
  512       12.992117   0.000000
  513       12.992117   0.000000
  514       12.992117   0.000000
  515       12.992118   0.000000
  516       12.992121   0.000000
  517       13.303011   0.000000
  518       13.303012   0.000000
  519       13.303013   0.000000
  520       13.303022   0.000000
  521       13.303027   0.000000
  522       13.303052   0.000000
  523       13.629848   0.000000
  524       13.629910   0.000000
  525       13.630057   0.000000
  526       13.630118   0.000000
  527       13.630396   0.000000
  528       13.630630   0.000000
  529       13.768408   0.000000
  530       13.768421   0.000000
  531       13.768437   0.000000
  532       13.768460   0.000000
  533       13.768470   0.000000
  534       13.768504   0.000000
  535       13.768634   0.000000
  536       13.769036   0.000000
  537       14.310587   0.000000
  538       15.220622   0.000000
  539       15.248665   0.000000
  540       15.297613   0.000000
  541       15.362400   0.000000
