       N       E                     dE             d eps       ncg     rms          rms(c)
DAV:   1     0.241436624223E+04    0.24144E+04   -0.33883E+05  1082   0.117E+03
DAV:   2    -0.153498347555E+04   -0.39493E+04   -0.37712E+04  1319   0.231E+02
DAV:   3    -0.181729303906E+04   -0.28231E+03   -0.27935E+03  1276   0.606E+01
DAV:   4    -0.182453447548E+04   -0.72414E+01   -0.72052E+01  1276   0.103E+01
DAV:   5    -0.182472029312E+04   -0.18582E+00   -0.18543E+00  1220   0.164E+00    0.910E+01
RMM:   6    -0.163153809323E+04    0.19318E+03   -0.66420E+02  1082   0.231E+01    0.401E+01
RMM:   7    -0.162687088042E+04    0.46672E+01   -0.11188E+02  1082   0.923E+00    0.181E+01
RMM:   8    -0.162566052815E+04    0.12104E+01   -0.46254E+00  1082   0.244E+00    0.240E+00
RMM:   9    -0.162561750427E+04    0.43024E-01   -0.24980E-01  1083   0.518E-01    0.107E+00
RMM:  10    -0.162563727248E+04   -0.19768E-01   -0.27817E-01  1082   0.461E-01    0.670E-01
RMM:  11    -0.162562812971E+04    0.91428E-02   -0.44857E-02  1082   0.217E-01    0.100E-01
RMM:  12    -0.162562820801E+04   -0.78298E-04   -0.61691E-04  1099   0.299E-02    0.345E-02
RMM:  13    -0.162562829906E+04   -0.91053E-04   -0.26857E-04  1082   0.150E-02    0.459E-02
RMM:  14    -0.162562823530E+04    0.63756E-04   -0.94325E-05  1082   0.871E-03    0.107E-02
RMM:  15    -0.162562823021E+04    0.50948E-05   -0.46721E-05  1082   0.626E-03    0.662E-03
RMM:  16    -0.162562823120E+04   -0.99593E-06   -0.72805E-07   642   0.108E-03
   1 F= -.16256282E+04 E0= -.16256282E+04  d E =-.162563E+04
