 vasp.5.4.1 05Feb16 (build Oct 12 2016 17:31:35) complex                        
  
 executed on           IFC91_ompi date 2018.05.23  10:22:31
 running on    1 total cores
 distrk:  each k-point on    1 cores,    1 groups
 distr:  one band on NCORES_PER_BAND=   1 cores,    1 groups


--------------------------------------------------------------------------------------------------------


 INCAR:
 POTCAR:    PAW_PBE C 08Apr2002                   
 POTCAR:    PAW_PBE Si 05Jan2001                  
 POTCAR:    PAW_PBE C 08Apr2002                   
   VRHFIN =C: s2p2                                                              
   LEXCH  = PE                                                                  
   EATOM  =   147.1560 eV,   10.8157 Ry                                         
                                                                                
   TITEL  = PAW_PBE C 08Apr2002                                                 
   LULTRA =        F    use ultrasoft PP ?                                      
   IUNSCR =        1    unscreen: 0-lin 1-nonlin 2-no                           
   RPACOR =    1.200    partial core radius                                     
   POMASS =   12.011; ZVAL   =    4.000    mass and valenz                      
   RCORE  =    1.500    outmost cutoff radius                                   
   RWIGS  =    1.630; RWIGS  =    0.863    wigner-seitz radius (au A)           
   ENMAX  =  400.000; ENMIN  =  300.000 eV                                      
   ICORE  =        2    local potential                                         
   LCOR   =        T    correct aug charges                                     
   LPAW   =        T    paw PP                                                  
   EAUG   =  644.873                                                            
   DEXC   =    0.000                                                            
   RMAX   =    1.529    core radius for proj-oper                               
   RAUG   =    1.300    factor for augmentation sphere                          
   RDEP   =    1.501    radius for radial grids                                 
   RDEPT  =    1.300    core radius for aug-charge                              
                                                                                
   Atomic configuration                                                         
    4 entries                                                                   
     n  l   j            E        occ.                                          
     1  0  0.50      -273.3789   2.0000                                         
     2  0  0.50       -13.7508   2.0000                                         
     2  1  0.50        -5.2854   2.0000                                         
     3  2  1.50        -5.4423   0.0000                                         
   Description                                                                  
     l       E           TYP  RCUT    TYP  RCUT                                 
     0    -13.7508458     23  1.200                                             
     0     -8.2022199     23  1.200                                             
     1     -5.2854383     23  1.500                                             
     1     34.0145650     23  1.500                                             
     2     -5.4423304      7  1.500                                             
  local pseudopotential read in
  partial core-charges read in
  partial kinetic energy density read in
  atomic valenz-charges read in
  non local Contribution for L=           0  read in
    real space projection operators read in
  non local Contribution for L=           0  read in
    real space projection operators read in
  non local Contribution for L=           1  read in
    real space projection operators read in
  non local Contribution for L=           1  read in
    real space projection operators read in
    PAW grid and wavefunctions read in
 
   number of l-projection  operators is LMAX  =           4
   number of lm-projection operators is LMMAX =           8
 
 POTCAR:    PAW_PBE Si 05Jan2001                  
   VRHFIN =Si: s2p2                                                             
   LEXCH  = PE                                                                  
   EATOM  =   103.0669 eV,    7.5752 Ry                                         
                                                                                
   TITEL  = PAW_PBE Si 05Jan2001                                                
   LULTRA =        F    use ultrasoft PP ?                                      
   IUNSCR =        1    unscreen: 0-lin 1-nonlin 2-no                           
   RPACOR =    1.500    partial core radius                                     
   POMASS =   28.085; ZVAL   =    4.000    mass and valenz                      
   RCORE  =    1.900    outmost cutoff radius                                   
   RWIGS  =    2.480; RWIGS  =    1.312    wigner-seitz radius (au A)           
   ENMAX  =  245.345; ENMIN  =  184.009 eV                                      
   ICORE  =        2    local potential                                         
   LCOR   =        T    correct aug charges                                     
   LPAW   =        T    paw PP                                                  
   EAUG   =  322.069                                                            
   DEXC   =    0.000                                                            
   RMAX   =    1.950    core radius for proj-oper                               
   RAUG   =    1.300    factor for augmentation sphere                          
   RDEP   =    1.993    radius for radial grids                                 
   RDEPT  =    1.837    core radius for aug-charge                              
                                                                                
   Atomic configuration                                                         
    6 entries                                                                   
     n  l   j            E        occ.                                          
     1  0  0.50     -1785.8828   2.0000                                         
     2  0  0.50      -139.4969   2.0000                                         
     2  1  1.50       -95.5546   6.0000                                         
     3  0  0.50       -10.8127   2.0000                                         
     3  1  0.50        -4.0811   2.0000                                         
     3  2  1.50        -4.0817   0.0000                                         
   Description                                                                  
     l       E           TYP  RCUT    TYP  RCUT                                 
     0    -10.8127223     23  1.900                                             
     0     -7.6451159     23  1.900                                             
     1     -4.0811372     23  1.900                                             
     1      2.4879257     23  1.900                                             
     2     -4.0817478      7  1.900                                             
  local pseudopotential read in
  partial core-charges read in
  partial kinetic energy density read in
  atomic valenz-charges read in
  non local Contribution for L=           0  read in
    real space projection operators read in
  non local Contribution for L=           0  read in
    real space projection operators read in
  non local Contribution for L=           1  read in
    real space projection operators read in
  non local Contribution for L=           1  read in
    real space projection operators read in
    PAW grid and wavefunctions read in
 
   number of l-projection  operators is LMAX  =           4
   number of lm-projection operators is LMMAX =           8
 
 Optimization of the real space projectors (new method)

 maximal supplied QI-value         = 25.13
 optimisation between [QCUT,QGAM] = [ 10.05, 20.36] = [ 28.30,116.06] Ry 
 Optimized for a Real-space Cutoff    1.30 Angstroem

   l    n(q)    QCUT    max X(q) W(low)/X(q) W(high)/X(q)  e(spline) 
   0      8    10.053   115.676    0.49E-03    0.72E-03    0.18E-06
   0      8    10.053    87.132    0.49E-03    0.71E-03    0.18E-06
   1      7    10.053     4.429    0.32E-03    0.31E-03    0.18E-06
   1      7    10.053     2.733    0.23E-03    0.19E-03    0.20E-06
 Optimization of the real space projectors (new method)

 maximal supplied QI-value         = 19.84
 optimisation between [QCUT,QGAM] = [ 10.12, 20.44] = [ 28.68,116.96] Ry 
 Optimized for a Real-space Cutoff    1.23 Angstroem

   l    n(q)    QCUT    max X(q) W(low)/X(q) W(high)/X(q)  e(spline) 
   0      7    10.119   159.560    0.56E-04    0.22E-03    0.45E-07
   0      7    10.119   115.863    0.56E-04    0.21E-03    0.45E-07
   1      7    10.119    88.339    0.34E-03    0.49E-03    0.11E-06
   1      7    10.119    48.592    0.33E-03    0.48E-03    0.11E-06
  PAW_PBE C 08Apr2002                   :
 energy of atom  1       EATOM= -147.1560
 kinetic energy error for atom=    0.0288 (will be added to EATOM!!)
  PAW_PBE Si 05Jan2001                  :
 energy of atom  2       EATOM= -103.0669
 kinetic energy error for atom=    0.0012 (will be added to EATOM!!)
 
 
 POSCAR: SiC Unit Cell                           
  positions in direct lattice
  No initial velocities read in
 exchange correlation table for  LEXCH =        8
   RHO(1)=    0.500       N(1)  =     2000
   RHO(2)=  100.500       N(2)  =     4000
 


--------------------------------------------------------------------------------------------------------


 ion  position               nearest neighbor table
   1  0.000  0.000  0.000- 109 1.89 136 1.89 168 1.89 180 1.89
   2  0.167  0.167  0.000- 110 1.89 150 1.89 152 1.89 109 1.89
   3  0.167  0.000  0.167- 112 1.89 124 1.89 126 1.89 109 1.89
   4  0.000  0.167  0.167- 111 1.89 116 1.89 120 1.89 109 1.89
   5  0.333  0.000  0.000- 124 1.89 152 1.89 113 1.89 204 1.89
   6  0.667  0.000  0.000- 114 1.89 208 1.89 166 1.89 134 1.89
   7  0.500  0.167  0.000- 115 1.89 162 1.89 113 1.89 166 1.89
   8  0.833  0.167  0.000- 164 1.89 116 1.89 114 1.89 168 1.89
   9  0.500  0.000  0.167- 119 1.89 138 1.89 134 1.89 113 1.89
  10  0.833  0.000  0.167- 140 1.89 120 1.89 114 1.89 136 1.89
  11  0.333  0.167  0.167- 110 1.89 112 1.89 117 1.89 113 1.89
  12  0.667  0.167  0.167- 118 1.89 115 1.89 114 1.89 119 1.89
  13  0.000  0.333  0.000- 116 1.89 150 1.89 121 1.89 214 1.89
  14  0.000  0.667  0.000- 122 1.89 216 1.89 178 1.89 135 1.89
  15  0.167  0.500  0.000- 123 1.89 182 1.89 178 1.89 121 1.89
  16  0.167  0.833  0.000- 184 1.89 124 1.89 122 1.89 180 1.89
  17  0.167  0.333  0.167- 110 1.89 111 1.89 127 1.89 121 1.89
  18  0.167  0.667  0.167- 128 1.89 123 1.89 125 1.89 122 1.89
  19  0.000  0.500  0.167- 125 1.89 143 1.89 135 1.89 121 1.89
  20  0.000  0.833  0.167- 144 1.89 126 1.89 122 1.89 136 1.89
  21  0.333  0.333  0.000- 110 1.89 162 1.89 182 1.89 129 1.89
  22  0.333  0.667  0.000- 184 1.89 130 1.89 123 1.89 202 1.89
  23  0.667  0.333  0.000- 164 1.89 131 1.89 115 1.89 210 1.89
  24  0.667  0.667  0.000- 132 1.89 206 1.89 212 1.89 133 1.89
  25  0.500  0.500  0.000- 129 1.89 133 1.89 202 1.89 210 1.89
  26  0.500  0.833  0.000- 130 1.89 212 1.89 204 1.89 134 1.89
  27  0.833  0.500  0.000- 131 1.89 206 1.89 135 1.89 214 1.89
  28  0.833  0.833  0.000- 132 1.89 208 1.89 216 1.89 136 1.89
  29  0.500  0.333  0.167- 117 1.89 115 1.89 141 1.89 129 1.89
  30  0.500  0.667  0.167- 142 1.89 137 1.89 130 1.89 133 1.89
  31  0.833  0.333  0.167- 118 1.89 116 1.89 131 1.89 143 1.89
  32  0.833  0.667  0.167- 132 1.89 139 1.89 144 1.89 135 1.89
  33  0.333  0.500  0.167- 127 1.89 123 1.89 137 1.89 129 1.89
  34  0.333  0.833  0.167- 128 1.89 124 1.89 130 1.89 138 1.89
  35  0.667  0.500  0.167- 139 1.89 131 1.89 141 1.89 133 1.89
  36  0.667  0.833  0.167- 132 1.89 140 1.89 142 1.89 134 1.89
  37  0.000  0.000  0.333- 120 1.89 126 1.89 145 1.89 199 1.89
  38  0.000  0.000  0.667- 146 1.89 200 1.89 179 1.89 167 1.89
  39  0.167  0.167  0.333- 111 1.89 112 1.89 147 1.89 145 1.89
  40  0.167  0.167  0.667- 148 1.89 146 1.89 149 1.89 151 1.89
  41  0.167  0.000  0.500- 151 1.89 175 1.89 145 1.89 179 1.89
  42  0.167  0.000  0.833- 176 1.89 152 1.89 146 1.89 180 1.89
  43  0.000  0.167  0.500- 149 1.89 159 1.89 145 1.89 167 1.89
  44  0.000  0.167  0.833- 160 1.89 150 1.89 146 1.89 168 1.89
  45  0.333  0.000  0.333- 112 1.89 138 1.89 175 1.89 153 1.89
  46  0.333  0.000  0.667- 176 1.89 154 1.89 151 1.89 203 1.89
  47  0.667  0.000  0.333- 140 1.89 119 1.89 155 1.89 195 1.89
  48  0.667  0.000  0.667- 156 1.89 196 1.89 207 1.89 165 1.89
  49  0.500  0.167  0.333- 117 1.89 119 1.89 157 1.89 153 1.89
  50  0.500  0.167  0.667- 158 1.89 154 1.89 161 1.89 165 1.89
  51  0.833  0.167  0.333- 118 1.89 120 1.89 155 1.89 159 1.89
  52  0.833  0.167  0.667- 156 1.89 160 1.89 163 1.89 167 1.89
  53  0.500  0.000  0.500- 153 1.89 165 1.89 195 1.89 203 1.89
  54  0.500  0.000  0.833- 154 1.89 196 1.89 166 1.89 204 1.89
  55  0.833  0.000  0.500- 155 1.89 207 1.89 199 1.89 167 1.89
  56  0.833  0.000  0.833- 156 1.89 200 1.89 208 1.89 168 1.89
  57  0.333  0.167  0.500- 147 1.89 151 1.89 161 1.89 153 1.89
  58  0.333  0.167  0.833- 148 1.89 152 1.89 154 1.89 162 1.89
  59  0.667  0.167  0.500- 163 1.89 157 1.89 155 1.89 165 1.89
  60  0.667  0.167  0.833- 156 1.89 158 1.89 164 1.89 166 1.89
  61  0.000  0.333  0.333- 111 1.89 143 1.89 159 1.89 169 1.89
  62  0.000  0.333  0.667- 160 1.89 149 1.89 170 1.89 213 1.89
  63  0.000  0.667  0.333- 144 1.89 125 1.89 171 1.89 197 1.89
  64  0.000  0.667  0.667- 172 1.89 198 1.89 215 1.89 177 1.89
  65  0.167  0.500  0.333- 127 1.89 125 1.89 173 1.89 169 1.89
  66  0.167  0.500  0.667- 174 1.89 170 1.89 181 1.89 177 1.89
  67  0.167  0.833  0.333- 128 1.89 126 1.89 171 1.89 175 1.89
  68  0.167  0.833  0.667- 172 1.89 176 1.89 183 1.89 179 1.89
  69  0.167  0.333  0.500- 147 1.89 149 1.89 181 1.89 169 1.89
  70  0.167  0.333  0.833- 148 1.89 150 1.89 170 1.89 182 1.89
  71  0.167  0.667  0.500- 183 1.89 173 1.89 171 1.89 177 1.89
  72  0.167  0.667  0.833- 172 1.89 174 1.89 184 1.89 178 1.89
  73  0.000  0.500  0.500- 169 1.89 177 1.89 197 1.89 213 1.89
  74  0.000  0.500  0.833- 170 1.89 198 1.89 178 1.89 214 1.89
  75  0.000  0.833  0.500- 171 1.89 215 1.89 199 1.89 179 1.89
  76  0.000  0.833  0.833- 172 1.89 200 1.89 216 1.89 180 1.89
  77  0.333  0.333  0.333- 117 1.89 127 1.89 147 1.89 185 1.89
  78  0.333  0.333  0.667- 148 1.89 161 1.89 181 1.89 186 1.89
  79  0.333  0.667  0.333- 128 1.89 137 1.89 173 1.89 187 1.89
  80  0.333  0.667  0.667- 174 1.89 183 1.89 188 1.89 201 1.89
  81  0.667  0.333  0.333- 118 1.89 141 1.89 157 1.89 189 1.89
  82  0.667  0.333  0.667- 158 1.89 163 1.89 190 1.89 209 1.89
  83  0.667  0.667  0.333- 139 1.89 142 1.89 191 1.89 193 1.89
  84  0.667  0.667  0.667- 192 1.89 194 1.89 205 1.89 211 1.89
  85  0.500  0.500  0.333- 137 1.89 141 1.89 185 1.89 193 1.89
  86  0.500  0.500  0.667- 186 1.89 194 1.89 201 1.89 209 1.89
  87  0.500  0.833  0.333- 142 1.89 138 1.89 187 1.89 195 1.89
  88  0.500  0.833  0.667- 188 1.89 196 1.89 211 1.89 203 1.89
  89  0.833  0.500  0.333- 139 1.89 143 1.89 189 1.89 197 1.89
  90  0.833  0.500  0.667- 190 1.89 198 1.89 205 1.89 213 1.89
  91  0.833  0.833  0.333- 140 1.89 144 1.89 191 1.89 199 1.89
  92  0.833  0.833  0.667- 192 1.89 200 1.89 207 1.89 215 1.89
  93  0.500  0.333  0.500- 157 1.89 161 1.89 185 1.89 209 1.89
  94  0.500  0.333  0.833- 158 1.89 162 1.89 186 1.89 210 1.89
  95  0.500  0.667  0.500- 187 1.89 211 1.89 201 1.89 193 1.89
  96  0.500  0.667  0.833- 188 1.89 194 1.89 212 1.89 202 1.89
  97  0.833  0.333  0.500- 163 1.89 159 1.89 189 1.89 213 1.89
  98  0.833  0.333  0.833- 160 1.89 164 1.89 190 1.89 214 1.89
  99  0.833  0.667  0.500- 191 1.89 205 1.89 215 1.89 197 1.89
 100  0.833  0.667  0.833- 192 1.89 198 1.89 206 1.89 216 1.89
 101  0.333  0.500  0.500- 173 1.89 181 1.89 185 1.89 201 1.89
 102  0.333  0.500  0.833- 174 1.89 182 1.89 186 1.89 202 1.89
 103  0.333  0.833  0.500- 183 1.89 175 1.89 187 1.89 203 1.89
 104  0.333  0.833  0.833- 176 1.89 184 1.89 188 1.89 204 1.89
 105  0.667  0.500  0.500- 189 1.89 205 1.89 193 1.89 209 1.89
 106  0.667  0.500  0.833- 190 1.89 194 1.89 206 1.89 210 1.89
 107  0.667  0.833  0.500- 191 1.89 207 1.89 211 1.89 195 1.89
 108  0.667  0.833  0.833- 192 1.89 196 1.89 208 1.89 212 1.89
 109  0.083  0.083  0.083-   1 1.89   2 1.89   3 1.89   4 1.89 136 3.08 168 3.08 180 3.08 126 3.08
                           116 3.08 150 3.08 152 3.08 120 3.08 124 3.08 110 3.08 111 3.08 112 3.08
 110  0.250  0.250  0.083-   2 1.89  21 1.89  17 1.89  11 1.89 150 3.08 152 3.08 162 3.08 182 3.08
                           117 3.08 121 3.08 127 3.08 129 3.08 109 3.08 111 3.08 112 3.08 113 3.08
 111  0.083  0.250  0.250-   4 1.89  61 1.89  39 1.89  17 1.89 116 3.08 120 3.08 143 3.08 159 3.08
                           110 3.08 121 3.08 127 3.08 112 3.08 145 3.08 147 3.08 109 3.08 169 3.08
 112  0.250  0.083  0.250-   3 1.89  45 1.89  39 1.89  11 1.89 124 3.08 126 3.08 138 3.08 175 3.08
                           117 3.08 109 3.08 110 3.08 111 3.08 145 3.08 147 3.08 153 3.08 113 3.08
 113  0.417  0.083  0.083-   5 1.89   7 1.89   9 1.89  11 1.89 134 3.08 166 3.08 204 3.08 115 3.08
                           138 3.08 152 3.08 162 3.08 119 3.08 124 3.08 117 3.08 112 3.08 110 3.08
 114  0.750  0.083  0.083-   6 1.89   8 1.89  10 1.89  12 1.89 208 3.08 136 3.08 140 3.08 164 3.08
                           166 3.08 168 3.08 134 3.08 118 3.08 119 3.08 120 3.08 115 3.08 116 3.08
 115  0.583  0.250  0.083-   7 1.89  23 1.89  29 1.89  12 1.89 162 3.08 117 3.08 129 3.08 113 3.08
                           164 3.08 166 3.08 210 3.08 141 3.08 118 3.08 119 3.08 114 3.08 131 3.08
 116  0.917  0.250  0.083-  13 1.89   8 1.89   4 1.89  31 1.89 150 3.08 111 3.08 121 3.08 109 3.08
                           164 3.08 168 3.08 214 3.08 143 3.08 118 3.08 120 3.08 114 3.08 131 3.08
 117  0.417  0.250  0.250-  29 1.89  49 1.89  11 1.89  77 1.89 115 3.08 119 3.08 141 3.08 157 3.08
                           112 3.08 127 3.08 129 3.08 113 3.08 147 3.08 153 3.08 110 3.08 185 3.08
 118  0.750  0.250  0.250-  12 1.89  31 1.89  51 1.89  81 1.89 114 3.08 115 3.08 116 3.08 119 3.08
                           120 3.08 131 3.08 141 3.08 143 3.08 155 3.08 157 3.08 159 3.08 189 3.08
 119  0.583  0.083  0.250-   9 1.89  47 1.89  49 1.89  12 1.89 138 3.08 117 3.08 134 3.08 113 3.08
                           140 3.08 153 3.08 195 3.08 118 3.08 115 3.08 155 3.08 157 3.08 114 3.08
 120  0.917  0.083  0.250-  37 1.89  10 1.89   4 1.89  51 1.89 126 3.08 111 3.08 109 3.08 136 3.08
                           140 3.08 145 3.08 199 3.08 118 3.08 114 3.08 155 3.08 159 3.08 116 3.08
 121  0.083  0.417  0.083-  13 1.89  15 1.89  19 1.89  17 1.89 135 3.08 178 3.08 214 3.08 116 3.08
                           143 3.08 150 3.08 123 3.08 182 3.08 125 3.08 111 3.08 110 3.08 127 3.08
 122  0.083  0.750  0.083-  14 1.89  16 1.89  20 1.89  18 1.89 216 3.08 136 3.08 144 3.08 178 3.08
                           180 3.08 184 3.08 135 3.08 125 3.08 126 3.08 128 3.08 123 3.08 124 3.08
 123  0.250  0.583  0.083-  15 1.89  22 1.89  33 1.89  18 1.89 182 3.08 127 3.08 129 3.08 178 3.08
                           121 3.08 184 3.08 202 3.08 137 3.08 122 3.08 128 3.08 125 3.08 130 3.08
 124  0.250  0.917  0.083-   5 1.89   3 1.89  16 1.89  34 1.89 152 3.08 112 3.08 113 3.08 109 3.08
                           180 3.08 184 3.08 204 3.08 138 3.08 122 3.08 126 3.08 128 3.08 130 3.08
 125  0.083  0.583  0.250-  19 1.89  63 1.89  65 1.89  18 1.89 143 3.08 127 3.08 135 3.08 121 3.08
                           144 3.08 169 3.08 197 3.08 128 3.08 123 3.08 171 3.08 173 3.08 122 3.08
 126  0.083  0.917  0.250-  37 1.89  20 1.89   3 1.89  67 1.89 120 3.08 112 3.08 109 3.08 136 3.08
                           144 3.08 145 3.08 199 3.08 124 3.08 128 3.08 171 3.08 175 3.08 122 3.08
 127  0.250  0.417  0.250-  33 1.89  65 1.89  17 1.89  77 1.89 123 3.08 125 3.08 137 3.08 173 3.08
                           110 3.08 111 3.08 129 3.08 117 3.08 147 3.08 169 3.08 121 3.08 185 3.08
 128  0.250  0.750  0.250-  18 1.89  34 1.89  67 1.89  79 1.89 122 3.08 123 3.08 124 3.08 125 3.08
                           126 3.08 130 3.08 137 3.08 138 3.08 171 3.08 173 3.08 175 3.08 187 3.08
 129  0.417  0.417  0.083-  25 1.89  21 1.89  29 1.89  33 1.89 133 3.08 202 3.08 210 3.08 137 3.08
                           141 3.08 162 3.08 182 3.08 123 3.08 115 3.08 110 3.08 127 3.08 117 3.08
 130  0.417  0.750  0.083-  26 1.89  22 1.89  30 1.89  34 1.89 212 3.08 134 3.08 142 3.08 184 3.08
                           202 3.08 204 3.08 133 3.08 128 3.08 123 3.08 124 3.08 137 3.08 138 3.08
 131  0.750  0.417  0.083-  27 1.89  23 1.89  35 1.89  31 1.89 206 3.08 135 3.08 139 3.08 164 3.08
                           133 3.08 210 3.08 214 3.08 143 3.08 115 3.08 116 3.08 118 3.08 141 3.08
 132  0.750  0.750  0.083-  24 1.89  28 1.89  32 1.89  36 1.89 206 3.08 208 3.08 212 3.08 216 3.08
                           139 3.08 140 3.08 142 3.08 144 3.08 133 3.08 134 3.08 135 3.08 136 3.08
 133  0.583  0.583  0.083-  25 1.89  24 1.89  30 1.89  35 1.89 129 3.08 202 3.08 210 3.08 137 3.08
                           141 3.08 130 3.08 206 3.08 131 3.08 212 3.08 132 3.08 142 3.08 139 3.08
 134  0.583  0.917  0.083-   6 1.89   9 1.89  26 1.89  36 1.89 113 3.08 166 3.08 204 3.08 130 3.08
                           138 3.08 114 3.08 119 3.08 208 3.08 212 3.08 140 3.08 142 3.08 132 3.08
 135  0.917  0.583  0.083-  14 1.89  19 1.89  27 1.89  32 1.89 121 3.08 178 3.08 214 3.08 131 3.08
                           143 3.08 122 3.08 206 3.08 125 3.08 216 3.08 132 3.08 144 3.08 139 3.08
 136  0.917  0.917  0.083-   1 1.89  10 1.89  20 1.89  28 1.89 109 3.08 168 3.08 180 3.08 122 3.08
                           126 3.08 114 3.08 120 3.08 208 3.08 216 3.08 140 3.08 144 3.08 132 3.08
 137  0.417  0.583  0.250-  85 1.89  33 1.89  30 1.89  79 1.89 141 3.08 129 3.08 133 3.08 127 3.08
                           142 3.08 185 3.08 193 3.08 130 3.08 173 3.08 128 3.08 187 3.08 123 3.08
 138  0.417  0.917  0.250-   9 1.89  45 1.89  87 1.89  34 1.89 119 3.08 113 3.08 112 3.08 134 3.08
                           142 3.08 153 3.08 195 3.08 128 3.08 130 3.08 175 3.08 187 3.08 124 3.08
 139  0.750  0.583  0.250-  35 1.89  89 1.89  83 1.89  32 1.89 131 3.08 141 3.08 143 3.08 189 3.08
                           132 3.08 142 3.08 133 3.08 144 3.08 135 3.08 191 3.08 193 3.08 197 3.08
 140  0.750  0.917  0.250-  10 1.89  47 1.89  36 1.89  91 1.89 114 3.08 119 3.08 120 3.08 155 3.08
                           134 3.08 136 3.08 142 3.08 144 3.08 132 3.08 191 3.08 195 3.08 199 3.08
 141  0.583  0.417  0.250-  85 1.89  35 1.89  29 1.89  81 1.89 137 3.08 129 3.08 133 3.08 117 3.08
                           139 3.08 185 3.08 193 3.08 131 3.08 157 3.08 118 3.08 189 3.08 115 3.08
 142  0.583  0.750  0.250-  30 1.89  87 1.89  83 1.89  36 1.89 130 3.08 137 3.08 138 3.08 187 3.08
                           132 3.08 133 3.08 139 3.08 140 3.08 134 3.08 191 3.08 193 3.08 195 3.08
 143  0.917  0.417  0.250-  19 1.89  61 1.89  89 1.89  31 1.89 125 3.08 121 3.08 111 3.08 135 3.08
                           139 3.08 169 3.08 197 3.08 118 3.08 159 3.08 131 3.08 189 3.08 116 3.08
 144  0.917  0.750  0.250-  20 1.89  63 1.89  32 1.89  91 1.89 122 3.08 125 3.08 126 3.08 171 3.08
                           135 3.08 136 3.08 139 3.08 140 3.08 132 3.08 191 3.08 197 3.08 199 3.08
 145  0.083  0.083  0.417-  37 1.89  41 1.89  43 1.89  39 1.89 167 3.08 179 3.08 199 3.08 151 3.08
                           159 3.08 120 3.08 175 3.08 126 3.08 149 3.08 112 3.08 147 3.08 111 3.08
 146  0.083  0.083  0.750-  38 1.89  42 1.89  44 1.89  40 1.89 200 3.08 167 3.08 168 3.08 176 3.08
                           179 3.08 180 3.08 160 3.08 150 3.08 151 3.08 152 3.08 148 3.08 149 3.08
 147  0.250  0.250  0.417-  57 1.89  69 1.89  39 1.89  77 1.89 149 3.08 151 3.08 161 3.08 181 3.08
                           145 3.08 111 3.08 112 3.08 153 3.08 117 3.08 169 3.08 127 3.08 185 3.08
 148  0.250  0.250  0.750-  40 1.89  58 1.89  70 1.89  78 1.89 146 3.08 149 3.08 150 3.08 151 3.08
                           152 3.08 154 3.08 161 3.08 162 3.08 170 3.08 181 3.08 182 3.08 186 3.08
 149  0.083  0.250  0.583-  43 1.89  62 1.89  69 1.89  40 1.89 159 3.08 147 3.08 145 3.08 160 3.08
                           167 3.08 169 3.08 213 3.08 151 3.08 146 3.08 170 3.08 181 3.08 148 3.08
 150  0.083  0.250  0.917-  13 1.89   2 1.89  44 1.89  70 1.89 116 3.08 110 3.08 109 3.08 121 3.08
                           160 3.08 168 3.08 214 3.08 146 3.08 148 3.08 170 3.08 182 3.08 152 3.08
 151  0.250  0.083  0.583-  41 1.89  46 1.89  57 1.89  40 1.89 175 3.08 147 3.08 153 3.08 145 3.08
                           176 3.08 179 3.08 203 3.08 161 3.08 148 3.08 149 3.08 146 3.08 154 3.08
 152  0.250  0.083  0.917-   5 1.89   2 1.89  42 1.89  58 1.89 124 3.08 110 3.08 113 3.08 109 3.08
                           176 3.08 180 3.08 204 3.08 154 3.08 162 3.08 146 3.08 148 3.08 150 3.08
 153  0.417  0.083  0.417-  53 1.89  49 1.89  45 1.89  57 1.89 165 3.08 195 3.08 203 3.08 157 3.08
                           161 3.08 119 3.08 175 3.08 138 3.08 151 3.08 117 3.08 147 3.08 112 3.08
 154  0.417  0.083  0.750-  54 1.89  50 1.89  46 1.89  58 1.89 196 3.08 165 3.08 166 3.08 176 3.08
                           158 3.08 203 3.08 204 3.08 152 3.08 148 3.08 161 3.08 162 3.08 151 3.08
 155  0.750  0.083  0.417-  55 1.89  47 1.89  59 1.89  51 1.89 207 3.08 163 3.08 165 3.08 167 3.08
                           195 3.08 199 3.08 140 3.08 120 3.08 118 3.08 157 3.08 159 3.08 119 3.08
 156  0.750  0.083  0.750-  48 1.89  56 1.89  52 1.89  60 1.89 196 3.08 200 3.08 207 3.08 208 3.08
                           165 3.08 166 3.08 167 3.08 168 3.08 158 3.08 160 3.08 163 3.08 164 3.08
 157  0.583  0.250  0.417-  93 1.89  59 1.89  49 1.89  81 1.89 161 3.08 153 3.08 117 3.08 163 3.08
                           165 3.08 185 3.08 209 3.08 141 3.08 118 3.08 155 3.08 189 3.08 119 3.08
 158  0.583  0.250  0.750-  50 1.89  94 1.89  82 1.89  60 1.89 154 3.08 161 3.08 162 3.08 186 3.08
                           163 3.08 164 3.08 165 3.08 166 3.08 156 3.08 190 3.08 209 3.08 210 3.08
 159  0.917  0.250  0.417-  43 1.89  61 1.89  97 1.89  51 1.89 149 3.08 145 3.08 111 3.08 163 3.08
                           167 3.08 169 3.08 213 3.08 143 3.08 118 3.08 120 3.08 189 3.08 155 3.08
 160  0.917  0.250  0.750-  44 1.89  62 1.89  52 1.89  98 1.89 146 3.08 149 3.08 150 3.08 170 3.08
                           163 3.08 164 3.08 167 3.08 168 3.08 156 3.08 190 3.08 213 3.08 214 3.08
 161  0.417  0.250  0.583-  93 1.89  57 1.89  50 1.89  78 1.89 157 3.08 153 3.08 147 3.08 158 3.08
                           165 3.08 185 3.08 209 3.08 154 3.08 181 3.08 151 3.08 186 3.08 148 3.08
 162  0.417  0.250  0.917-   7 1.89  21 1.89  94 1.89  58 1.89 115 3.08 113 3.08 110 3.08 129 3.08
                           158 3.08 166 3.08 210 3.08 148 3.08 152 3.08 182 3.08 186 3.08 154 3.08
 163  0.750  0.250  0.583-  59 1.89  97 1.89  82 1.89  52 1.89 155 3.08 157 3.08 159 3.08 189 3.08
                           156 3.08 160 3.08 165 3.08 167 3.08 158 3.08 190 3.08 209 3.08 213 3.08
 164  0.750  0.250  0.917-   8 1.89  23 1.89  60 1.89  98 1.89 114 3.08 115 3.08 116 3.08 131 3.08
                           156 3.08 158 3.08 160 3.08 166 3.08 168 3.08 190 3.08 210 3.08 214 3.08
 165  0.583  0.083  0.583-  53 1.89  50 1.89  48 1.89  59 1.89 153 3.08 195 3.08 203 3.08 157 3.08
                           161 3.08 154 3.08 196 3.08 155 3.08 207 3.08 156 3.08 163 3.08 158 3.08
 166  0.583  0.083  0.917-   6 1.89   7 1.89  54 1.89  60 1.89 113 3.08 134 3.08 204 3.08 114 3.08
                           154 3.08 162 3.08 196 3.08 115 3.08 208 3.08 158 3.08 156 3.08 164 3.08
 167  0.917  0.083  0.583-  38 1.89  43 1.89  55 1.89  52 1.89 145 3.08 179 3.08 199 3.08 155 3.08
                           159 3.08 146 3.08 149 3.08 200 3.08 207 3.08 160 3.08 163 3.08 156 3.08
 168  0.917  0.083  0.917-   1 1.89   8 1.89  44 1.89  56 1.89 109 3.08 136 3.08 180 3.08 114 3.08
                           146 3.08 150 3.08 116 3.08 200 3.08 208 3.08 156 3.08 160 3.08 164 3.08
 169  0.083  0.417  0.417-  73 1.89  65 1.89  69 1.89  61 1.89 177 3.08 197 3.08 213 3.08 159 3.08
                           173 3.08 125 3.08 181 3.08 143 3.08 149 3.08 111 3.08 147 3.08 127 3.08
 170  0.083  0.417  0.750-  74 1.89  66 1.89  62 1.89  70 1.89 198 3.08 174 3.08 177 3.08 178 3.08
                           160 3.08 213 3.08 214 3.08 181 3.08 182 3.08 149 3.08 150 3.08 148 3.08
 171  0.083  0.750  0.417-  75 1.89  71 1.89  63 1.89  67 1.89 215 3.08 177 3.08 179 3.08 183 3.08
                           197 3.08 199 3.08 144 3.08 128 3.08 125 3.08 173 3.08 175 3.08 126 3.08
 172  0.083  0.750  0.750-  64 1.89  76 1.89  72 1.89  68 1.89 198 3.08 200 3.08 215 3.08 216 3.08
                           179 3.08 180 3.08 183 3.08 184 3.08 174 3.08 176 3.08 177 3.08 178 3.08
 173  0.250  0.583  0.417- 101 1.89  71 1.89  65 1.89  79 1.89 181 3.08 169 3.08 177 3.08 127 3.08
                           183 3.08 185 3.08 201 3.08 137 3.08 125 3.08 171 3.08 187 3.08 128 3.08
 174  0.250  0.583  0.750-  66 1.89 102 1.89  80 1.89  72 1.89 170 3.08 181 3.08 182 3.08 186 3.08
                           172 3.08 177 3.08 183 3.08 184 3.08 178 3.08 188 3.08 201 3.08 202 3.08
 175  0.250  0.917  0.417-  41 1.89  45 1.89 103 1.89  67 1.89 151 3.08 145 3.08 112 3.08 153 3.08
                           179 3.08 183 3.08 203 3.08 171 3.08 126 3.08 128 3.08 187 3.08 138 3.08
 176  0.250  0.917  0.750-  42 1.89  46 1.89  68 1.89 104 1.89 146 3.08 151 3.08 152 3.08 154 3.08
                           172 3.08 179 3.08 180 3.08 183 3.08 184 3.08 188 3.08 203 3.08 204 3.08
 177  0.083  0.583  0.583-  73 1.89  66 1.89  71 1.89  64 1.89 169 3.08 197 3.08 213 3.08 173 3.08
                           181 3.08 170 3.08 198 3.08 171 3.08 215 3.08 172 3.08 183 3.08 174 3.08
 178  0.083  0.583  0.917-  14 1.89  15 1.89  74 1.89  72 1.89 121 3.08 135 3.08 214 3.08 122 3.08
                           170 3.08 182 3.08 198 3.08 123 3.08 216 3.08 174 3.08 172 3.08 184 3.08
 179  0.083  0.917  0.583-  38 1.89  41 1.89  75 1.89  68 1.89 145 3.08 167 3.08 199 3.08 146 3.08
                           171 3.08 175 3.08 151 3.08 200 3.08 215 3.08 172 3.08 176 3.08 183 3.08
 180  0.083  0.917  0.917-   1 1.89  16 1.89  42 1.89  76 1.89 109 3.08 136 3.08 168 3.08 122 3.08
                           146 3.08 152 3.08 124 3.08 200 3.08 216 3.08 184 3.08 172 3.08 176 3.08
 181  0.250  0.417  0.583- 101 1.89  69 1.89  66 1.89  78 1.89 173 3.08 169 3.08 147 3.08 174 3.08
                           177 3.08 185 3.08 201 3.08 161 3.08 148 3.08 170 3.08 186 3.08 149 3.08
 182  0.250  0.417  0.917-  15 1.89  21 1.89 102 1.89  70 1.89 123 3.08 121 3.08 110 3.08 129 3.08
                           174 3.08 178 3.08 202 3.08 170 3.08 148 3.08 150 3.08 186 3.08 162 3.08
 183  0.250  0.750  0.583-  71 1.89 103 1.89  80 1.89  68 1.89 171 3.08 173 3.08 175 3.08 187 3.08
                           172 3.08 176 3.08 177 3.08 179 3.08 174 3.08 188 3.08 201 3.08 203 3.08
 184  0.250  0.750  0.917-  16 1.89  22 1.89  72 1.89 104 1.89 122 3.08 123 3.08 124 3.08 130 3.08
                           172 3.08 174 3.08 176 3.08 178 3.08 180 3.08 188 3.08 202 3.08 204 3.08
 185  0.417  0.417  0.417-  85 1.89  93 1.89 101 1.89  77 1.89 193 3.08 201 3.08 209 3.08 161 3.08
                           173 3.08 181 3.08 137 3.08 141 3.08 157 3.08 127 3.08 147 3.08 117 3.08
 186  0.417  0.417  0.750-  86 1.89  94 1.89 102 1.89  78 1.89 194 3.08 174 3.08 158 3.08 201 3.08
                           202 3.08 209 3.08 210 3.08 161 3.08 162 3.08 148 3.08 181 3.08 182 3.08
 187  0.417  0.750  0.417-  95 1.89  87 1.89 103 1.89  79 1.89 211 3.08 183 3.08 193 3.08 195 3.08
                           201 3.08 203 3.08 142 3.08 138 3.08 128 3.08 173 3.08 175 3.08 137 3.08
 188  0.417  0.750  0.750-  88 1.89  96 1.89  80 1.89 104 1.89 194 3.08 196 3.08 211 3.08 212 3.08
                           174 3.08 176 3.08 201 3.08 202 3.08 203 3.08 204 3.08 183 3.08 184 3.08
 189  0.750  0.417  0.417- 105 1.89  97 1.89  89 1.89  81 1.89 205 3.08 163 3.08 193 3.08 197 3.08
                           139 3.08 209 3.08 213 3.08 141 3.08 143 3.08 157 3.08 159 3.08 118 3.08
 190  0.750  0.417  0.750-  90 1.89 106 1.89  98 1.89  82 1.89 194 3.08 198 3.08 205 3.08 206 3.08
                           158 3.08 160 3.08 163 3.08 164 3.08 209 3.08 210 3.08 213 3.08 214 3.08
 191  0.750  0.750  0.417-  99 1.89 107 1.89  83 1.89  91 1.89 205 3.08 207 3.08 211 3.08 215 3.08
                           193 3.08 195 3.08 197 3.08 199 3.08 139 3.08 140 3.08 142 3.08 144 3.08
 192  0.750  0.750  0.750-  84 1.89  92 1.89 100 1.89 108 1.89 194 3.08 196 3.08 198 3.08 200 3.08
                           205 3.08 206 3.08 207 3.08 208 3.08 211 3.08 212 3.08 215 3.08 216 3.08
 193  0.583  0.583  0.417-  85 1.89  95 1.89 105 1.89  83 1.89 185 3.08 201 3.08 209 3.08 187 3.08
                           189 3.08 141 3.08 205 3.08 137 3.08 211 3.08 139 3.08 191 3.08 142 3.08
 194  0.583  0.583  0.750-  86 1.89  96 1.89 106 1.89  84 1.89 186 3.08 188 3.08 190 3.08 201 3.08
                           202 3.08 209 3.08 210 3.08 206 3.08 192 3.08 205 3.08 211 3.08 212 3.08
 195  0.583  0.917  0.417-  53 1.89  47 1.89  87 1.89 107 1.89 153 3.08 165 3.08 203 3.08 155 3.08
                           138 3.08 187 3.08 119 3.08 207 3.08 211 3.08 140 3.08 142 3.08 191 3.08
 196  0.583  0.917  0.750-  54 1.89  48 1.89  88 1.89 108 1.89 154 3.08 156 3.08 165 3.08 166 3.08
                           188 3.08 203 3.08 204 3.08 192 3.08 207 3.08 208 3.08 211 3.08 212 3.08
 197  0.917  0.583  0.417-  73 1.89  63 1.89  89 1.89  99 1.89 169 3.08 177 3.08 213 3.08 171 3.08
                           143 3.08 189 3.08 205 3.08 125 3.08 215 3.08 139 3.08 144 3.08 191 3.08
 198  0.917  0.583  0.750-  74 1.89  64 1.89  90 1.89 100 1.89 170 3.08 172 3.08 177 3.08 178 3.08
                           190 3.08 213 3.08 214 3.08 206 3.08 192 3.08 205 3.08 215 3.08 216 3.08
 199  0.917  0.917  0.417-  37 1.89  55 1.89  75 1.89  91 1.89 145 3.08 167 3.08 179 3.08 155 3.08
                           126 3.08 171 3.08 120 3.08 207 3.08 215 3.08 191 3.08 144 3.08 140 3.08
 200  0.917  0.917  0.750-  38 1.89  56 1.89  76 1.89  92 1.89 146 3.08 156 3.08 167 3.08 168 3.08
                           172 3.08 179 3.08 180 3.08 192 3.08 207 3.08 208 3.08 215 3.08 216 3.08
 201  0.417  0.583  0.583-  86 1.89  95 1.89 101 1.89  80 1.89 185 3.08 193 3.08 209 3.08 186 3.08
                           187 3.08 181 3.08 194 3.08 173 3.08 211 3.08 174 3.08 188 3.08 183 3.08
 202  0.417  0.583  0.917-  25 1.89  22 1.89  96 1.89 102 1.89 129 3.08 133 3.08 210 3.08 123 3.08
                           182 3.08 186 3.08 194 3.08 130 3.08 212 3.08 184 3.08 174 3.08 188 3.08
 203  0.417  0.917  0.583-  53 1.89  46 1.89  88 1.89 103 1.89 153 3.08 165 3.08 195 3.08 151 3.08
                           175 3.08 187 3.08 154 3.08 196 3.08 211 3.08 183 3.08 176 3.08 188 3.08
 204  0.417  0.917  0.917-   5 1.89  26 1.89  54 1.89 104 1.89 113 3.08 134 3.08 166 3.08 124 3.08
                           152 3.08 154 3.08 130 3.08 196 3.08 212 3.08 188 3.08 176 3.08 184 3.08
 205  0.750  0.583  0.583- 105 1.89  99 1.89  90 1.89  84 1.89 189 3.08 190 3.08 191 3.08 193 3.08
                           197 3.08 209 3.08 213 3.08 198 3.08 194 3.08 211 3.08 192 3.08 215 3.08
 206  0.750  0.583  0.917-  27 1.89  24 1.89 106 1.89 100 1.89 131 3.08 132 3.08 133 3.08 135 3.08
                           190 3.08 210 3.08 214 3.08 198 3.08 192 3.08 212 3.08 194 3.08 216 3.08
 207  0.750  0.917  0.583-  55 1.89  48 1.89 107 1.89  92 1.89 155 3.08 156 3.08 165 3.08 167 3.08
                           191 3.08 195 3.08 199 3.08 196 3.08 192 3.08 200 3.08 211 3.08 215 3.08
 208  0.750  0.917  0.917-   6 1.89  28 1.89  56 1.89 108 1.89 114 3.08 132 3.08 134 3.08 136 3.08
                           156 3.08 166 3.08 168 3.08 192 3.08 196 3.08 200 3.08 212 3.08 216 3.08
 209  0.583  0.417  0.583-  86 1.89  93 1.89 105 1.89  82 1.89 185 3.08 193 3.08 201 3.08 186 3.08
                           189 3.08 161 3.08 194 3.08 157 3.08 205 3.08 158 3.08 190 3.08 163 3.08
 210  0.583  0.417  0.917-  25 1.89  23 1.89  94 1.89 106 1.89 129 3.08 133 3.08 202 3.08 115 3.08
                           162 3.08 186 3.08 194 3.08 131 3.08 206 3.08 164 3.08 158 3.08 190 3.08
 211  0.583  0.750  0.583-  95 1.89  88 1.89 107 1.89  84 1.89 187 3.08 188 3.08 191 3.08 193 3.08
                           195 3.08 201 3.08 203 3.08 196 3.08 194 3.08 192 3.08 205 3.08 207 3.08
 212  0.583  0.750  0.917-  26 1.89  24 1.89  96 1.89 108 1.89 130 3.08 132 3.08 133 3.08 134 3.08
                           188 3.08 202 3.08 204 3.08 196 3.08 192 3.08 194 3.08 206 3.08 208 3.08
 213  0.917  0.417  0.583-  73 1.89  62 1.89  90 1.89  97 1.89 169 3.08 177 3.08 197 3.08 170 3.08
                           159 3.08 189 3.08 149 3.08 198 3.08 205 3.08 160 3.08 163 3.08 190 3.08
 214  0.917  0.417  0.917-  13 1.89  27 1.89  74 1.89  98 1.89 121 3.08 135 3.08 178 3.08 116 3.08
                           150 3.08 170 3.08 131 3.08 198 3.08 206 3.08 190 3.08 160 3.08 164 3.08
 215  0.917  0.750  0.583-  75 1.89  64 1.89  99 1.89  92 1.89 171 3.08 172 3.08 177 3.08 179 3.08
                           191 3.08 197 3.08 199 3.08 198 3.08 192 3.08 200 3.08 205 3.08 207 3.08
 216  0.917  0.750  0.917-  14 1.89  28 1.89  76 1.89 100 1.89 122 3.08 132 3.08 135 3.08 136 3.08
                           172 3.08 178 3.08 180 3.08 192 3.08 198 3.08 200 3.08 206 3.08 208 3.08
 
  LATTYP: Found a simple cubic cell.
 ALAT       =    13.0800000000
  
  Lattice vectors:
  
 A1 = (  13.0800000000,   0.0000000000,   0.0000000000)
 A2 = (   0.0000000000,  13.0800000000,   0.0000000000)
 A3 = (   0.0000000000,   0.0000000000,  13.0800000000)


Analysis of symmetry for initial positions (statically):
=====================================================================
 Subroutine PRICEL returns following result:
 
  LATTYP: Found a face centered cubic cell.
 ALAT       =     4.3600087200
  
  Lattice vectors:
  
 A1 = (   2.1800043600,   2.1800043600,  -0.0000130800)
 A2 = (   2.1800043600,   0.0000000000,  -2.1800043600)
 A3 = (   0.0000000000,   2.1800043600,  -2.1800043600)
 
 108 primitive cells build up your supercell.
 

 Routine SETGRP: Setting up the symmetry group for a 
 simple cubic supercell.


 Subroutine GETGRP returns: Found 24 space group operations
 (whereof 24 operations were pure point group operations)
 out of a pool of 48 trial point group operations.


The static configuration has the point symmetry T_d .


Analysis of symmetry for dynamics (positions and initial velocities):
=====================================================================
 Subroutine PRICEL returns following result:
 
  LATTYP: Found a face centered cubic cell.
 ALAT       =     4.3600087200
  
  Lattice vectors:
  
 A1 = (   2.1800043600,   2.1800043600,  -0.0000130800)
 A2 = (   2.1800043600,   0.0000000000,  -2.1800043600)
 A3 = (   0.0000000000,   2.1800043600,  -2.1800043600)
 
 108 primitive cells build up your supercell.
 

 Routine SETGRP: Setting up the symmetry group for a 
 simple cubic supercell.


 Subroutine GETGRP returns: Found 24 space group operations
 (whereof 24 operations were pure point group operations)
 out of a pool of 48 trial point group operations.


The dynamic configuration has the point symmetry T_d .


 Subroutine INISYM returns: Found 24 space group operations
 (whereof 24 operations are pure point group operations),
 and found   108 'primitive' translations

 
 
 KPOINTS: 3^3 grid of points      Comment         

Automatic generation of k-mesh.
Space group operators:
 irot       det(A)        alpha          n_x          n_y          n_z        tau_x        tau_y        tau_z
    1     1.000000     0.000001     1.000000     0.000000     0.000000     0.000000     0.000000     0.000000
    2     1.000000   120.000000    -0.577350    -0.577350    -0.577350     0.000000     0.000000     0.000000
    3     1.000000   120.000000     0.577350     0.577350     0.577350     0.000000     0.000000     0.000000
    4    -1.000000    90.000000     0.000000     0.000000    -1.000000     0.000000     0.000000     0.000000
    5    -1.000000   180.000000     0.000000     0.707107     0.707107     0.000000     0.000000     0.000000
    6    -1.000000    90.000000     0.000000     1.000000     0.000000     0.000000     0.000000     0.000000
    7     1.000000   180.000000     0.000000     0.000000     1.000000     0.000000     0.000000     0.000000
    8     1.000000   120.000000    -0.577350     0.577350     0.577350     0.000000     0.000000     0.000000
    9     1.000000   120.000000    -0.577350     0.577350    -0.577350     0.000000     0.000000     0.000000
   10    -1.000000    90.000000     0.000000     0.000000     1.000000     0.000000     0.000000     0.000000
   11    -1.000000    90.000000    -1.000000     0.000000     0.000000     0.000000     0.000000     0.000000
   12    -1.000000   180.000000     0.707107     0.000000     0.707107     0.000000     0.000000     0.000000
   13     1.000000   120.000000     0.577350    -0.577350     0.577350     0.000000     0.000000     0.000000
   14     1.000000   120.000000    -0.577350    -0.577350     0.577350     0.000000     0.000000     0.000000
   15     1.000000   180.000000     1.000000     0.000000     0.000000     0.000000     0.000000     0.000000
   16    -1.000000    90.000000     0.000000    -1.000000     0.000000     0.000000     0.000000     0.000000
   17    -1.000000   180.000000     0.707107     0.707107     0.000000     0.000000     0.000000     0.000000
   18    -1.000000    90.000000     1.000000     0.000000     0.000000     0.000000     0.000000     0.000000
   19     1.000000   120.000000     0.577350    -0.577350    -0.577350     0.000000     0.000000     0.000000
   20     1.000000   180.000000     0.000000     1.000000     0.000000     0.000000     0.000000     0.000000
   21     1.000000   120.000000     0.577350     0.577350    -0.577350     0.000000     0.000000     0.000000
   22    -1.000000   180.000000     0.000000    -0.707107     0.707107     0.000000     0.000000     0.000000
   23    -1.000000   180.000000     0.707107    -0.707107     0.000000     0.000000     0.000000     0.000000
   24    -1.000000   180.000000     0.707107     0.000000    -0.707107     0.000000     0.000000     0.000000
 
 Subroutine IBZKPT returns following result:
 ===========================================
 
 Found      1 irreducible k-points:
 
 Following reciprocal coordinates:
            Coordinates               Weight
  0.000000  0.000000  0.000000      1.000000
 
 Following cartesian coordinates:
            Coordinates               Weight
  0.000000  0.000000  0.000000      1.000000
 


--------------------------------------------------------------------------------------------------------




 Dimension of arrays:
   k-points           NKPTS =      1   k-points in BZ     NKDIM =      1   number of bands    NBANDS=    541
   number of dos      NEDOS =   5000   number of ions     NIONS =    216
   non local maximal  LDIM  =      4   non local SUM 2l+1 LMDIM =      8
   total plane-waves  NPLWV = 262144
   max r-space proj   IRMAX =   1131   max aug-charges    IRDMAX=   4116
   dimension x,y,z NGX =    64 NGY =   64 NGZ =   64
   dimension x,y,z NGXF=   128 NGYF=  128 NGZF=  128
   support grid    NGXF=   128 NGYF=  128 NGZF=  128
   ions per type =             108 108
 NGX,Y,Z   is equivalent  to a cutoff of   8.13,  8.13,  8.13 a.u.
 NGXF,Y,Z  is equivalent  to a cutoff of  16.27, 16.27, 16.27 a.u.


 I would recommend the setting:
   dimension x,y,z NGX =    64 NGY =   64 NGZ =   64
 SYSTEM =  Silicon                                 
 POSCAR =  SiC Unit Cell                           

 Startparameter for this run:
   NWRITE =      2    write-flag & timer
   PREC   = normal    normal or accurate (medium, high low for compatibility)
   ISTART =      0    job   : 0-new  1-cont  2-samecut
   ICHARG =      2    charge: 1-file 2-atom 10-const
   ISPIN  =      1    spin polarized calculation?
   LNONCOLLINEAR =      F non collinear calculations
   LSORBIT =      F    spin-orbit coupling
   INIWAV =      1    electr: 0-lowe 1-rand  2-diag
   LASPH  =      F    aspherical Exc in radial PAW
   METAGGA=      F    non-selfconsistent MetaGGA calc.

 Electronic Relaxation 1
   ENCUT  =  400.0 eV  29.40 Ry    5.42 a.u.  21.33 21.33 21.33*2*pi/ulx,y,z
   ENINI  =  400.0     initial cutoff
   ENAUG  =  644.9 eV  augmentation charge cutoff
   NELM   =    120;   NELMIN=  2; NELMDL= -5     # of ELM steps 
   EDIFF  = 0.1E-05   stopping-criterion for ELM
   LREAL  =      T    real-space projection
   NLSPLINE    = F    spline interpolate recip. space projectors
   LCOMPAT=      F    compatible to vasp.4.4
   GGA_COMPAT  = T    GGA compatible to vasp.4.4-vasp.4.6
   LMAXPAW     = -100 max onsite density
   LMAXMIX     =    2 max onsite mixed and CHGCAR
   VOSKOWN=      0    Vosko Wilk Nusair interpolation
   ROPT   =   -0.00050  -0.00050
 Ionic relaxation
   EDIFFG = -.1E-01   stopping-criterion for IOM
   NSW    =    200    number of steps for IOM
   NBLOCK =      1;   KBLOCK =    200    inner block; outer block 
   IBRION =      2    ionic relax: 0-MD 1-quasi-New 2-CG
   NFREE  =      1    steps in history (QN), initial steepest desc. (CG)
   ISIF   =      2    stress and relaxation
   IWAVPR =     11    prediction:  0-non 1-charg 2-wave 3-comb
   ISYM   =      2    0-nonsym 1-usesym 2-fastsym
   LCORR  =      T    Harris-Foulkes like correction to forces

   POTIM  = 0.5000    time-step for ionic-motion
   TEIN   =    0.0    initial temperature
   TEBEG  =    0.0;   TEEND  =   0.0 temperature during run
   SMASS  =  -3.00    Nose mass-parameter (am)
   estimated Nose-frequenzy (Omega)   =  0.10E-29 period in steps =****** mass=  -0.391E-26a.u.
   SCALEE = 1.0000    scale energy and forces
   NPACO  =    256;   APACO  = 16.0  distance and # of slots for P.C.
   PSTRESS=    0.0 pullay stress

  Mass of Ions in am
   POMASS =  12.01 28.09
  Ionic Valenz
   ZVAL   =   4.00  4.00
  Atomic Wigner-Seitz radii
   RWIGS  =  -1.00 -1.00
  virtual crystal weights 
   VCA    =   1.00  1.00
   NELECT =     864.0000    total number of electrons
   NUPDOWN=      -1.0000    fix difference up-down

 DOS related values:
   EMIN   =  10.00;   EMAX   =-10.00  energy-range for DOS
   EFERMI =   0.00
   ISMEAR =     0;   SIGMA  =   0.05  broadening in eV -4-tet -1-fermi 0-gaus

 Electronic relaxation 2 (details)
   IALGO  =     68    algorithm
   LDIAG  =      T    sub-space diagonalisation (order eigenvalues)
   LSUBROT=      F    optimize rotation matrix (better conditioning)
   TURBO    =      0    0=normal 1=particle mesh
   IRESTART =      0    0=no restart 2=restart with 2 vectors
   NREBOOT  =      0    no. of reboots
   NMIN     =      0    reboot dimension
   EREF     =   0.00    reference energy to select bands
   IMIX   =      4    mixing-type and parameters
     AMIX     =   0.40;   BMIX     =  1.00
     AMIX_MAG =   1.60;   BMIX_MAG =  1.00
     AMIN     =   0.10
     WC   =   100.;   INIMIX=   1;  MIXPRE=   1;  MAXMIX= -45

 Intra band minimization:
   WEIMIN = 0.0010     energy-eigenvalue tresh-hold
   EBREAK =  0.46E-09  absolut break condition
   DEPER  =   0.30     relativ break condition  

   TIME   =   0.40     timestep for ELM

  volume/ion in A,a.u.               =      10.36        69.91
  Fermi-wavevector in a.u.,A,eV,Ry     =   1.192079  2.252702 19.334588  1.421052
  Thomas-Fermi vector in A             =   2.328126
 
 Write flags
   LWAVE  =      F    write WAVECAR
   LCHARG =      F    write CHGCAR
   LVTOT  =      F    write LOCPOT, total local potential
   LVHAR  =      F    write LOCPOT, Hartree potential only
   LELF   =      F    write electronic localiz. function (ELF)
   LORBIT =      0    0 simple, 1 ext, 2 COOP (PROOUT)


 Dipole corrections
   LMONO  =      F    monopole corrections only (constant potential shift)
   LDIPOL =      F    correct potential (dipole corrections)
   IDIPOL =      0    1-x, 2-y, 3-z, 4-all directions 
   EPSILON=  1.0000000 bulk dielectric constant

 Exchange correlation treatment:
   GGA     =    --    GGA type
   LEXCH   =     8    internal setting for exchange type
   VOSKOWN=      0    Vosko Wilk Nusair interpolation
   LHFCALC =     F    Hartree Fock is set to
   LHFONE  =     F    Hartree Fock one center treatment
   AEXX    =    0.0000 exact exchange contribution

 Linear response parameters
   LEPSILON=     F    determine dielectric tensor
   LRPA    =     F    only Hartree local field effects (RPA)
   LNABLA  =     F    use nabla operator in PAW spheres
   LVEL    =     F    velocity operator in full k-point grid
   LINTERFAST=   F  fast interpolation
   KINTER  =     0    interpolate to denser k-point grid
   CSHIFT  =0.1000    complex shift for real part using Kramers Kronig
   OMEGAMAX=  -1.0    maximum frequency
   DEG_THRESHOLD= 0.2000000E-02 threshold for treating states as degnerate
   RTIME   =    0.100 relaxation time in fs

 Orbital magnetization related:
   ORBITALMAG=     F  switch on orbital magnetization
   LCHIMAG   =     F  perturbation theory with respect to B field
   DQ        =  0.001000  dq finite difference perturbation B field



--------------------------------------------------------------------------------------------------------


 conjugate gradient relaxation of ions
 charge density and potential will be updated during run
 non-spin polarized calculation
 RMM-DIIS sequential band-by-band and
  variant of blocked Davidson during initial phase
 perform sub-space diagonalisation
    before iterative eigenvector-optimisation
 modified Broyden-mixing scheme, WC =      100.0
 initial mixing is a Kerker type mixing with AMIX =  0.4000 and BMIX =      1.0000
 Hartree-type preconditioning will be used
 using additional bands          109
 real space projection scheme for non local part
 use partial core corrections
 calculate Harris-corrections to forces 
   (improved forces if not selfconsistent)
 use gradient corrections 
 use of overlap-Matrix (Vanderbilt PP)
 Gauss-broadening in eV      SIGMA  =   0.05


--------------------------------------------------------------------------------------------------------


  energy-cutoff  :      400.00
  volume of cell :     2237.81
      direct lattice vectors                 reciprocal lattice vectors
    13.080000000  0.000000000  0.000000000     0.076452599  0.000000000  0.000000000
     0.000000000 13.080000000  0.000000000     0.000000000  0.076452599  0.000000000
     0.000000000  0.000000000 13.080000000     0.000000000  0.000000000  0.076452599

  length of vectors
    13.080000000 13.080000000 13.080000000     0.076452599  0.076452599  0.076452599


 
 k-points in units of 2pi/SCALE and weight: 3^3 grid of points      Comment         
   0.00000000  0.00000000  0.00000000       1.000
 
 k-points in reciprocal lattice and weights: 3^3 grid of points      Comment         
   0.00000000  0.00000000  0.00000000       1.000
 
 position of ions in fractional coordinates (direct lattice) 
   0.00000000  0.00000000  0.00000000
   0.16666700  0.16666700  0.00000000
   0.16666700  0.00000000  0.16666700
   0.00000000  0.16666700  0.16666700
   0.33333300  0.00000000  0.00000000
   0.66666700  0.00000000  0.00000000
   0.50000000  0.16666700  0.00000000
   0.83333300  0.16666700  0.00000000
   0.50000000  0.00000000  0.16666700
   0.83333300  0.00000000  0.16666700
   0.33333300  0.16666700  0.16666700
   0.66666700  0.16666700  0.16666700
   0.00000000  0.33333300  0.00000000
   0.00000000  0.66666700  0.00000000
   0.16666700  0.50000000  0.00000000
   0.16666700  0.83333300  0.00000000
   0.16666700  0.33333300  0.16666700
   0.16666700  0.66666700  0.16666700
   0.00000000  0.50000000  0.16666700
   0.00000000  0.83333300  0.16666700
   0.33333300  0.33333300  0.00000000
   0.33333300  0.66666700  0.00000000
   0.66666700  0.33333300  0.00000000
   0.66666700  0.66666700  0.00000000
   0.50000000  0.50000000  0.00000000
   0.50000000  0.83333300  0.00000000
   0.83333300  0.50000000  0.00000000
   0.83333300  0.83333300  0.00000000
   0.50000000  0.33333300  0.16666700
   0.50000000  0.66666700  0.16666700
   0.83333300  0.33333300  0.16666700
   0.83333300  0.66666700  0.16666700
   0.33333300  0.50000000  0.16666700
   0.33333300  0.83333300  0.16666700
   0.66666700  0.50000000  0.16666700
   0.66666700  0.83333300  0.16666700
   0.00000000  0.00000000  0.33333300
   0.00000000  0.00000000  0.66666700
   0.16666700  0.16666700  0.33333300
   0.16666700  0.16666700  0.66666700
   0.16666700  0.00000000  0.50000000
   0.16666700  0.00000000  0.83333300
   0.00000000  0.16666700  0.50000000
   0.00000000  0.16666700  0.83333300
   0.33333300  0.00000000  0.33333300
   0.33333300  0.00000000  0.66666700
   0.66666700  0.00000000  0.33333300
   0.66666700  0.00000000  0.66666700
   0.50000000  0.16666700  0.33333300
   0.50000000  0.16666700  0.66666700
   0.83333300  0.16666700  0.33333300
   0.83333300  0.16666700  0.66666700
   0.50000000  0.00000000  0.50000000
   0.50000000  0.00000000  0.83333300
   0.83333300  0.00000000  0.50000000
   0.83333300  0.00000000  0.83333300
   0.33333300  0.16666700  0.50000000
   0.33333300  0.16666700  0.83333300
   0.66666700  0.16666700  0.50000000
   0.66666700  0.16666700  0.83333300
   0.00000000  0.33333300  0.33333300
   0.00000000  0.33333300  0.66666700
   0.00000000  0.66666700  0.33333300
   0.00000000  0.66666700  0.66666700
   0.16666700  0.50000000  0.33333300
   0.16666700  0.50000000  0.66666700
   0.16666700  0.83333300  0.33333300
   0.16666700  0.83333300  0.66666700
   0.16666700  0.33333300  0.50000000
   0.16666700  0.33333300  0.83333300
   0.16666700  0.66666700  0.50000000
   0.16666700  0.66666700  0.83333300
   0.00000000  0.50000000  0.50000000
   0.00000000  0.50000000  0.83333300
   0.00000000  0.83333300  0.50000000
   0.00000000  0.83333300  0.83333300
   0.33333300  0.33333300  0.33333300
   0.33333300  0.33333300  0.66666700
   0.33333300  0.66666700  0.33333300
   0.33333300  0.66666700  0.66666700
   0.66666700  0.33333300  0.33333300
   0.66666700  0.33333300  0.66666700
   0.66666700  0.66666700  0.33333300
   0.66666700  0.66666700  0.66666700
   0.50000000  0.50000000  0.33333300
   0.50000000  0.50000000  0.66666700
   0.50000000  0.83333300  0.33333300
   0.50000000  0.83333300  0.66666700
   0.83333300  0.50000000  0.33333300
   0.83333300  0.50000000  0.66666700
   0.83333300  0.83333300  0.33333300
   0.83333300  0.83333300  0.66666700
   0.50000000  0.33333300  0.50000000
   0.50000000  0.33333300  0.83333300
   0.50000000  0.66666700  0.50000000
   0.50000000  0.66666700  0.83333300
   0.83333300  0.33333300  0.50000000
   0.83333300  0.33333300  0.83333300
   0.83333300  0.66666700  0.50000000
   0.83333300  0.66666700  0.83333300
   0.33333300  0.50000000  0.50000000
   0.33333300  0.50000000  0.83333300
   0.33333300  0.83333300  0.50000000
   0.33333300  0.83333300  0.83333300
   0.66666700  0.50000000  0.50000000
   0.66666700  0.50000000  0.83333300
   0.66666700  0.83333300  0.50000000
   0.66666700  0.83333300  0.83333300
   0.08333300  0.08333300  0.08333300
   0.25000000  0.25000000  0.08333300
   0.08333300  0.25000000  0.25000000
   0.25000000  0.08333300  0.25000000
   0.41666700  0.08333300  0.08333300
   0.75000000  0.08333300  0.08333300
   0.58333300  0.25000000  0.08333300
   0.91666700  0.25000000  0.08333300
   0.41666700  0.25000000  0.25000000
   0.75000000  0.25000000  0.25000000
   0.58333300  0.08333300  0.25000000
   0.91666700  0.08333300  0.25000000
   0.08333300  0.41666700  0.08333300
   0.08333300  0.75000000  0.08333300
   0.25000000  0.58333300  0.08333300
   0.25000000  0.91666700  0.08333300
   0.08333300  0.58333300  0.25000000
   0.08333300  0.91666700  0.25000000
   0.25000000  0.41666700  0.25000000
   0.25000000  0.75000000  0.25000000
   0.41666700  0.41666700  0.08333300
   0.41666700  0.75000000  0.08333300
   0.75000000  0.41666700  0.08333300
   0.75000000  0.75000000  0.08333300
   0.58333300  0.58333300  0.08333300
   0.58333300  0.91666700  0.08333300
   0.91666700  0.58333300  0.08333300
   0.91666700  0.91666700  0.08333300
   0.41666700  0.58333300  0.25000000
   0.41666700  0.91666700  0.25000000
   0.75000000  0.58333300  0.25000000
   0.75000000  0.91666700  0.25000000
   0.58333300  0.41666700  0.25000000
   0.58333300  0.75000000  0.25000000
   0.91666700  0.41666700  0.25000000
   0.91666700  0.75000000  0.25000000
   0.08333300  0.08333300  0.41666700
   0.08333300  0.08333300  0.75000000
   0.25000000  0.25000000  0.41666700
   0.25000000  0.25000000  0.75000000
   0.08333300  0.25000000  0.58333300
   0.08333300  0.25000000  0.91666700
   0.25000000  0.08333300  0.58333300
   0.25000000  0.08333300  0.91666700
   0.41666700  0.08333300  0.41666700
   0.41666700  0.08333300  0.75000000
   0.75000000  0.08333300  0.41666700
   0.75000000  0.08333300  0.75000000
   0.58333300  0.25000000  0.41666700
   0.58333300  0.25000000  0.75000000
   0.91666700  0.25000000  0.41666700
   0.91666700  0.25000000  0.75000000
   0.41666700  0.25000000  0.58333300
   0.41666700  0.25000000  0.91666700
   0.75000000  0.25000000  0.58333300
   0.75000000  0.25000000  0.91666700
   0.58333300  0.08333300  0.58333300
   0.58333300  0.08333300  0.91666700
   0.91666700  0.08333300  0.58333300
   0.91666700  0.08333300  0.91666700
   0.08333300  0.41666700  0.41666700
   0.08333300  0.41666700  0.75000000
   0.08333300  0.75000000  0.41666700
   0.08333300  0.75000000  0.75000000
   0.25000000  0.58333300  0.41666700
   0.25000000  0.58333300  0.75000000
   0.25000000  0.91666700  0.41666700
   0.25000000  0.91666700  0.75000000
   0.08333300  0.58333300  0.58333300
   0.08333300  0.58333300  0.91666700
   0.08333300  0.91666700  0.58333300
   0.08333300  0.91666700  0.91666700
   0.25000000  0.41666700  0.58333300
   0.25000000  0.41666700  0.91666700
   0.25000000  0.75000000  0.58333300
   0.25000000  0.75000000  0.91666700
   0.41666700  0.41666700  0.41666700
   0.41666700  0.41666700  0.75000000
   0.41666700  0.75000000  0.41666700
   0.41666700  0.75000000  0.75000000
   0.75000000  0.41666700  0.41666700
   0.75000000  0.41666700  0.75000000
   0.75000000  0.75000000  0.41666700
   0.75000000  0.75000000  0.75000000
   0.58333300  0.58333300  0.41666700
   0.58333300  0.58333300  0.75000000
   0.58333300  0.91666700  0.41666700
   0.58333300  0.91666700  0.75000000
   0.91666700  0.58333300  0.41666700
   0.91666700  0.58333300  0.75000000
   0.91666700  0.91666700  0.41666700
   0.91666700  0.91666700  0.75000000
   0.41666700  0.58333300  0.58333300
   0.41666700  0.58333300  0.91666700
   0.41666700  0.91666700  0.58333300
   0.41666700  0.91666700  0.91666700
   0.75000000  0.58333300  0.58333300
   0.75000000  0.58333300  0.91666700
   0.75000000  0.91666700  0.58333300
   0.75000000  0.91666700  0.91666700
   0.58333300  0.41666700  0.58333300
   0.58333300  0.41666700  0.91666700
   0.58333300  0.75000000  0.58333300
   0.58333300  0.75000000  0.91666700
   0.91666700  0.41666700  0.58333300
   0.91666700  0.41666700  0.91666700
   0.91666700  0.75000000  0.58333300
   0.91666700  0.75000000  0.91666700
 
 position of ions in cartesian coordinates  (Angst):
   0.00000000  0.00000000  0.00000000
   2.18000436  2.18000436  0.00000000
   2.18000436  0.00000000  2.18000436
   0.00000000  2.18000436  2.18000436
   4.35999564  0.00000000  0.00000000
   8.72000436  0.00000000  0.00000000
   6.54000000  2.18000436  0.00000000
  10.89999564  2.18000436  0.00000000
   6.54000000  0.00000000  2.18000436
  10.89999564  0.00000000  2.18000436
   4.35999564  2.18000436  2.18000436
   8.72000436  2.18000436  2.18000436
   0.00000000  4.35999564  0.00000000
   0.00000000  8.72000436  0.00000000
   2.18000436  6.54000000  0.00000000
   2.18000436 10.89999564  0.00000000
   2.18000436  4.35999564  2.18000436
   2.18000436  8.72000436  2.18000436
   0.00000000  6.54000000  2.18000436
   0.00000000 10.89999564  2.18000436
   4.35999564  4.35999564  0.00000000
   4.35999564  8.72000436  0.00000000
   8.72000436  4.35999564  0.00000000
   8.72000436  8.72000436  0.00000000
   6.54000000  6.54000000  0.00000000
   6.54000000 10.89999564  0.00000000
  10.89999564  6.54000000  0.00000000
  10.89999564 10.89999564  0.00000000
   6.54000000  4.35999564  2.18000436
   6.54000000  8.72000436  2.18000436
  10.89999564  4.35999564  2.18000436
  10.89999564  8.72000436  2.18000436
   4.35999564  6.54000000  2.18000436
   4.35999564 10.89999564  2.18000436
   8.72000436  6.54000000  2.18000436
   8.72000436 10.89999564  2.18000436
   0.00000000  0.00000000  4.35999564
   0.00000000  0.00000000  8.72000436
   2.18000436  2.18000436  4.35999564
   2.18000436  2.18000436  8.72000436
   2.18000436  0.00000000  6.54000000
   2.18000436  0.00000000 10.89999564
   0.00000000  2.18000436  6.54000000
   0.00000000  2.18000436 10.89999564
   4.35999564  0.00000000  4.35999564
   4.35999564  0.00000000  8.72000436
   8.72000436  0.00000000  4.35999564
   8.72000436  0.00000000  8.72000436
   6.54000000  2.18000436  4.35999564
   6.54000000  2.18000436  8.72000436
  10.89999564  2.18000436  4.35999564
  10.89999564  2.18000436  8.72000436
   6.54000000  0.00000000  6.54000000
   6.54000000  0.00000000 10.89999564
  10.89999564  0.00000000  6.54000000
  10.89999564  0.00000000 10.89999564
   4.35999564  2.18000436  6.54000000
   4.35999564  2.18000436 10.89999564
   8.72000436  2.18000436  6.54000000
   8.72000436  2.18000436 10.89999564
   0.00000000  4.35999564  4.35999564
   0.00000000  4.35999564  8.72000436
   0.00000000  8.72000436  4.35999564
   0.00000000  8.72000436  8.72000436
   2.18000436  6.54000000  4.35999564
   2.18000436  6.54000000  8.72000436
   2.18000436 10.89999564  4.35999564
   2.18000436 10.89999564  8.72000436
   2.18000436  4.35999564  6.54000000
   2.18000436  4.35999564 10.89999564
   2.18000436  8.72000436  6.54000000
   2.18000436  8.72000436 10.89999564
   0.00000000  6.54000000  6.54000000
   0.00000000  6.54000000 10.89999564
   0.00000000 10.89999564  6.54000000
   0.00000000 10.89999564 10.89999564
   4.35999564  4.35999564  4.35999564
   4.35999564  4.35999564  8.72000436
   4.35999564  8.72000436  4.35999564
   4.35999564  8.72000436  8.72000436
   8.72000436  4.35999564  4.35999564
   8.72000436  4.35999564  8.72000436
   8.72000436  8.72000436  4.35999564
   8.72000436  8.72000436  8.72000436
   6.54000000  6.54000000  4.35999564
   6.54000000  6.54000000  8.72000436
   6.54000000 10.89999564  4.35999564
   6.54000000 10.89999564  8.72000436
  10.89999564  6.54000000  4.35999564
  10.89999564  6.54000000  8.72000436
  10.89999564 10.89999564  4.35999564
  10.89999564 10.89999564  8.72000436
   6.54000000  4.35999564  6.54000000
   6.54000000  4.35999564 10.89999564
   6.54000000  8.72000436  6.54000000
   6.54000000  8.72000436 10.89999564
  10.89999564  4.35999564  6.54000000
  10.89999564  4.35999564 10.89999564
  10.89999564  8.72000436  6.54000000
  10.89999564  8.72000436 10.89999564
   4.35999564  6.54000000  6.54000000
   4.35999564  6.54000000 10.89999564
   4.35999564 10.89999564  6.54000000
   4.35999564 10.89999564 10.89999564
   8.72000436  6.54000000  6.54000000
   8.72000436  6.54000000 10.89999564
   8.72000436 10.89999564  6.54000000
   8.72000436 10.89999564 10.89999564
   1.08999564  1.08999564  1.08999564
   3.27000000  3.27000000  1.08999564
   1.08999564  3.27000000  3.27000000
   3.27000000  1.08999564  3.27000000
   5.45000436  1.08999564  1.08999564
   9.81000000  1.08999564  1.08999564
   7.62999564  3.27000000  1.08999564
  11.99000436  3.27000000  1.08999564
   5.45000436  3.27000000  3.27000000
   9.81000000  3.27000000  3.27000000
   7.62999564  1.08999564  3.27000000
  11.99000436  1.08999564  3.27000000
   1.08999564  5.45000436  1.08999564
   1.08999564  9.81000000  1.08999564
   3.27000000  7.62999564  1.08999564
   3.27000000 11.99000436  1.08999564
   1.08999564  7.62999564  3.27000000
   1.08999564 11.99000436  3.27000000
   3.27000000  5.45000436  3.27000000
   3.27000000  9.81000000  3.27000000
   5.45000436  5.45000436  1.08999564
   5.45000436  9.81000000  1.08999564
   9.81000000  5.45000436  1.08999564
   9.81000000  9.81000000  1.08999564
   7.62999564  7.62999564  1.08999564
   7.62999564 11.99000436  1.08999564
  11.99000436  7.62999564  1.08999564
  11.99000436 11.99000436  1.08999564
   5.45000436  7.62999564  3.27000000
   5.45000436 11.99000436  3.27000000
   9.81000000  7.62999564  3.27000000
   9.81000000 11.99000436  3.27000000
   7.62999564  5.45000436  3.27000000
   7.62999564  9.81000000  3.27000000
  11.99000436  5.45000436  3.27000000
  11.99000436  9.81000000  3.27000000
   1.08999564  1.08999564  5.45000436
   1.08999564  1.08999564  9.81000000
   3.27000000  3.27000000  5.45000436
   3.27000000  3.27000000  9.81000000
   1.08999564  3.27000000  7.62999564
   1.08999564  3.27000000 11.99000436
   3.27000000  1.08999564  7.62999564
   3.27000000  1.08999564 11.99000436
   5.45000436  1.08999564  5.45000436
   5.45000436  1.08999564  9.81000000
   9.81000000  1.08999564  5.45000436
   9.81000000  1.08999564  9.81000000
   7.62999564  3.27000000  5.45000436
   7.62999564  3.27000000  9.81000000
  11.99000436  3.27000000  5.45000436
  11.99000436  3.27000000  9.81000000
   5.45000436  3.27000000  7.62999564
   5.45000436  3.27000000 11.99000436
   9.81000000  3.27000000  7.62999564
   9.81000000  3.27000000 11.99000436
   7.62999564  1.08999564  7.62999564
   7.62999564  1.08999564 11.99000436
  11.99000436  1.08999564  7.62999564
  11.99000436  1.08999564 11.99000436
   1.08999564  5.45000436  5.45000436
   1.08999564  5.45000436  9.81000000
   1.08999564  9.81000000  5.45000436
   1.08999564  9.81000000  9.81000000
   3.27000000  7.62999564  5.45000436
   3.27000000  7.62999564  9.81000000
   3.27000000 11.99000436  5.45000436
   3.27000000 11.99000436  9.81000000
   1.08999564  7.62999564  7.62999564
   1.08999564  7.62999564 11.99000436
   1.08999564 11.99000436  7.62999564
   1.08999564 11.99000436 11.99000436
   3.27000000  5.45000436  7.62999564
   3.27000000  5.45000436 11.99000436
   3.27000000  9.81000000  7.62999564
   3.27000000  9.81000000 11.99000436
   5.45000436  5.45000436  5.45000436
   5.45000436  5.45000436  9.81000000
   5.45000436  9.81000000  5.45000436
   5.45000436  9.81000000  9.81000000
   9.81000000  5.45000436  5.45000436
   9.81000000  5.45000436  9.81000000
   9.81000000  9.81000000  5.45000436
   9.81000000  9.81000000  9.81000000
   7.62999564  7.62999564  5.45000436
   7.62999564  7.62999564  9.81000000
   7.62999564 11.99000436  5.45000436
   7.62999564 11.99000436  9.81000000
  11.99000436  7.62999564  5.45000436
  11.99000436  7.62999564  9.81000000
  11.99000436 11.99000436  5.45000436
  11.99000436 11.99000436  9.81000000
   5.45000436  7.62999564  7.62999564
   5.45000436  7.62999564 11.99000436
   5.45000436 11.99000436  7.62999564
   5.45000436 11.99000436 11.99000436
   9.81000000  7.62999564  7.62999564
   9.81000000  7.62999564 11.99000436
   9.81000000 11.99000436  7.62999564
   9.81000000 11.99000436 11.99000436
   7.62999564  5.45000436  7.62999564
   7.62999564  5.45000436 11.99000436
   7.62999564  9.81000000  7.62999564
   7.62999564  9.81000000 11.99000436
  11.99000436  5.45000436  7.62999564
  11.99000436  5.45000436 11.99000436
  11.99000436  9.81000000  7.62999564
  11.99000436  9.81000000 11.99000436
 


--------------------------------------------------------------------------------------------------------


 k-point  1 :   0.0000 0.0000 0.0000  plane waves:   40651

 maximum and minimum number of plane-waves per node :     40651    40651

 maximum number of plane-waves:     40651
 maximum index in each direction: 
   IXMAX=   21   IYMAX=   21   IZMAX=   21
   IXMIN=  -21   IYMIN=  -21   IZMIN=  -21

 WARNING: aliasing errors must be expected set NGX to  86 to avoid them
 WARNING: aliasing errors must be expected set NGY to  86 to avoid them
 WARNING: aliasing errors must be expected set NGZ to  86 to avoid them
 aliasing errors are usually negligible using standard VASP settings
 and one can safely disregard these warnings

 serial   3D FFT for wavefunctions
 parallel 3D FFT for charge:
    minimum data exchange during FFTs selected (reduces bandwidth)


 total amount of memory used by VASP on root node   617946. kBytes
========================================================================

   base      :      30000. kBytes
   nonlr-proj:      18673. kBytes
   fftplans  :      72476. kBytes
   grid      :     129302. kBytes
   one-center:        663. kBytes
   wavefun   :     366832. kBytes
 
     INWAV:  cpu time    0.0010: real time    0.0003
 Broyden mixing: mesh for mixing (old mesh)
   NGX = 43   NGY = 43   NGZ = 43
  (NGX  =128   NGY  =128   NGZ  =128)
  gives a total of  79507 points

 initial charge density was supplied:
 charge density of overlapping atoms calculated
 number of electron     864.0000000 magnetization 
 keeping initial charge density in first step


--------------------------------------------------------------------------------------------------------


 Maximum index for non-local projection operator         1057
 Maximum index for augmentation-charges         3812 (set IRDMAX)


--------------------------------------------------------------------------------------------------------


 First call to EWALD:  gamma=   0.136
 Maximum number of real-space cells 3x 3x 3
 Maximum number of reciprocal cells 3x 3x 3

 FEWALD executed in parallel
    FEWALD:  cpu time    0.2360: real time    0.2361


----------------------------------------- Iteration    1(   1)  ---------------------------------------


    POTLOK:  cpu time    1.0258: real time    1.0260
    SETDIJ:  cpu time    0.2240: real time    0.2241
     EDDAV:  cpu time   64.0513: real time   64.0271
       DOS:  cpu time    0.0050: real time    0.0051
    --------------------------------------------
      LOOP:  cpu time   65.3091: real time   65.2954

 eigenvalue-minimisations  :  1082
 total energy-change (2. order) : 0.2414366E+04  (-0.3388251E+05)
 number of electron     864.0000000 magnetization 
 augmentation part      864.0000000 magnetization 

 Free energy of the ion-electron system (eV)
  ---------------------------------------------------
  alpha Z        PSCENC =      1207.25708212
  Ewald energy   TEWEN  =    -30742.85384385
  -Hartree energ DENC   =     -2246.24399747
  -exchange      EXHF   =         0.00000000
  -V(xc)+E(xc)   XCENC  =       496.54467123
  PAW double counting   =     21237.75136745   -19399.17275770
  entropy T*S    EENTRO =        -0.03979657
  eigenvalues    EBANDS =      4840.28274623
  atomic energy  EATOM  =     27020.84077079
  Solvation  Ediel_sol  =         0.00000000
  ---------------------------------------------------
  free energy    TOTEN  =      2414.36624223 eV

  energy without entropy =     2414.40603881  energy(sigma->0) =     2414.38614052


--------------------------------------------------------------------------------------------------------




----------------------------------------- Iteration    1(   2)  ---------------------------------------


     EDDAV:  cpu time   75.4945: real time   75.4469
       DOS:  cpu time    0.0070: real time    0.0064
    --------------------------------------------
      LOOP:  cpu time   75.5035: real time   75.4748

 eigenvalue-minimisations  :  1319
 total energy-change (2. order) :-0.3949350E+04  (-0.3771179E+04)
 number of electron     864.0000000 magnetization 
 augmentation part      864.0000000 magnetization 

 Free energy of the ion-electron system (eV)
  ---------------------------------------------------
  alpha Z        PSCENC =      1207.25708212
  Ewald energy   TEWEN  =    -30742.85384385
  -Hartree energ DENC   =     -2246.24399747
  -exchange      EXHF   =         0.00000000
  -V(xc)+E(xc)   XCENC  =       496.54467123
  PAW double counting   =     21237.75136745   -19399.17275770
  entropy T*S    EENTRO =        -0.00000000
  eigenvalues    EBANDS =       890.89323188
  atomic energy  EATOM  =     27020.84077079
  Solvation  Ediel_sol  =         0.00000000
  ---------------------------------------------------
  free energy    TOTEN  =     -1534.98347555 eV

  energy without entropy =    -1534.98347555  energy(sigma->0) =    -1534.98347555


--------------------------------------------------------------------------------------------------------




----------------------------------------- Iteration    1(   3)  ---------------------------------------


     EDDAV:  cpu time   73.8088: real time   73.7515
       DOS:  cpu time    0.0070: real time    0.0067
    --------------------------------------------
      LOOP:  cpu time   73.8188: real time   73.7782

 eigenvalue-minimisations  :  1276
 total energy-change (2. order) :-0.2823096E+03  (-0.2793474E+03)
 number of electron     864.0000000 magnetization 
 augmentation part      864.0000000 magnetization 

 Free energy of the ion-electron system (eV)
  ---------------------------------------------------
  alpha Z        PSCENC =      1207.25708212
  Ewald energy   TEWEN  =    -30742.85384385
  -Hartree energ DENC   =     -2246.24399747
  -exchange      EXHF   =         0.00000000
  -V(xc)+E(xc)   XCENC  =       496.54467123
  PAW double counting   =     21237.75136745   -19399.17275770
  entropy T*S    EENTRO =        -0.00000000
  eigenvalues    EBANDS =       608.58366837
  atomic energy  EATOM  =     27020.84077079
  Solvation  Ediel_sol  =         0.00000000
  ---------------------------------------------------
  free energy    TOTEN  =     -1817.29303906 eV

  energy without entropy =    -1817.29303906  energy(sigma->0) =    -1817.29303906


--------------------------------------------------------------------------------------------------------




----------------------------------------- Iteration    1(   4)  ---------------------------------------


     EDDAV:  cpu time   73.7888: real time   73.7449
       DOS:  cpu time    0.0060: real time    0.0069
    --------------------------------------------
      LOOP:  cpu time   73.7978: real time   73.7644

 eigenvalue-minimisations  :  1276
 total energy-change (2. order) :-0.7241436E+01  (-0.7205193E+01)
 number of electron     864.0000000 magnetization 
 augmentation part      864.0000000 magnetization 

 Free energy of the ion-electron system (eV)
  ---------------------------------------------------
  alpha Z        PSCENC =      1207.25708212
  Ewald energy   TEWEN  =    -30742.85384385
  -Hartree energ DENC   =     -2246.24399747
  -exchange      EXHF   =         0.00000000
  -V(xc)+E(xc)   XCENC  =       496.54467123
  PAW double counting   =     21237.75136745   -19399.17275770
  entropy T*S    EENTRO =        -0.00000000
  eigenvalues    EBANDS =       601.34223195
  atomic energy  EATOM  =     27020.84077079
  Solvation  Ediel_sol  =         0.00000000
  ---------------------------------------------------
  free energy    TOTEN  =     -1824.53447548 eV

  energy without entropy =    -1824.53447548  energy(sigma->0) =    -1824.53447548


--------------------------------------------------------------------------------------------------------




----------------------------------------- Iteration    1(   5)  ---------------------------------------


     EDDAV:  cpu time   70.9832: real time   70.9297
       DOS:  cpu time    0.0070: real time    0.0069
    CHARGE:  cpu time    2.2687: real time    2.2772
    MIXING:  cpu time    0.0360: real time    0.0365
    --------------------------------------------
      LOOP:  cpu time   73.2999: real time   73.2686

 eigenvalue-minimisations  :  1220
 total energy-change (2. order) :-0.1858176E+00  (-0.1854333E+00)
 number of electron     863.9999998 magnetization 
 augmentation part       -5.4203950 magnetization 

 Broyden mixing:
  rms(total) = 0.91047E+01    rms(broyden)= 0.91040E+01
  rms(prec ) = 0.10659E+02
  weight for this iteration     100.00

 Free energy of the ion-electron system (eV)
  ---------------------------------------------------
  alpha Z        PSCENC =      1207.25708212
  Ewald energy   TEWEN  =    -30742.85384385
  -Hartree energ DENC   =     -2246.24399747
  -exchange      EXHF   =         0.00000000
  -V(xc)+E(xc)   XCENC  =       496.54467123
  PAW double counting   =     21237.75136745   -19399.17275770
  entropy T*S    EENTRO =        -0.00000000
  eigenvalues    EBANDS =       601.15641431
  atomic energy  EATOM  =     27020.84077079
  Solvation  Ediel_sol  =         0.00000000
  ---------------------------------------------------
  free energy    TOTEN  =     -1824.72029312 eV

  energy without entropy =    -1824.72029312  energy(sigma->0) =    -1824.72029312


--------------------------------------------------------------------------------------------------------




----------------------------------------- Iteration    1(   6)  ---------------------------------------


    POTLOK:  cpu time    1.0058: real time    1.0105
    SETDIJ:  cpu time    0.2250: real time    0.2246
    EDDIAG:  cpu time    8.7917: real time    8.7849
  RMM-DIIS:  cpu time   21.4977: real time   21.4806
    ORTHCH:  cpu time    3.6544: real time    3.6518
       DOS:  cpu time    0.0070: real time    0.0069
    CHARGE:  cpu time    2.1067: real time    2.1047
    MIXING:  cpu time    0.0400: real time    0.0402
    --------------------------------------------
      LOOP:  cpu time   37.3343: real time   37.3250

 eigenvalue-minimisations  :  1082
 total energy-change (2. order) : 0.1931822E+03  (-0.6641963E+02)
 number of electron     863.9999997 magnetization 
 augmentation part      -11.1583677 magnetization 

 Broyden mixing:
  rms(total) = 0.40136E+01    rms(broyden)= 0.40132E+01
  rms(prec ) = 0.43115E+01
  weight for this iteration     100.00

 eigenvalues of (default mixing * dielectric matrix)
  average eigenvalue GAMMA=   1.3695
  1.3695

 Free energy of the ion-electron system (eV)
  ---------------------------------------------------
  alpha Z        PSCENC =      1207.25708212
  Ewald energy   TEWEN  =    -30742.85384385
  -Hartree energ DENC   =     -3098.16649633
  -exchange      EXHF   =         0.00000000
  -V(xc)+E(xc)   XCENC  =       569.76971866
  PAW double counting   =     51027.41635665   -49199.78959448
  entropy T*S    EENTRO =        -0.00000000
  eigenvalues    EBANDS =      1583.98791321
  atomic energy  EATOM  =     27020.84077079
  Solvation  Ediel_sol  =         0.00000000
  ---------------------------------------------------
  free energy    TOTEN  =     -1631.53809323 eV

  energy without entropy =    -1631.53809323  energy(sigma->0) =    -1631.53809323


--------------------------------------------------------------------------------------------------------




----------------------------------------- Iteration    1(   7)  ---------------------------------------


    POTLOK:  cpu time    1.0618: real time    1.0725
    SETDIJ:  cpu time    0.2250: real time    0.2245
    EDDIAG:  cpu time    8.7467: real time    8.7396
  RMM-DIIS:  cpu time   21.5087: real time   21.4911
    ORTHCH:  cpu time    3.6604: real time    3.6584
       DOS:  cpu time    0.0070: real time    0.0069
    CHARGE:  cpu time    2.1027: real time    2.1013
[...]
      6.54000      2.18000      0.00000        -0.000000      0.000000      0.000000
     10.90000      2.18000      0.00000        -0.000000     -0.000000     -0.000000
      6.54000      0.00000      2.18000        -0.000000     -0.000000      0.000000
     10.90000      0.00000      2.18000         0.000000      0.000000     -0.000000
      4.36000      2.18000      2.18000        -0.000000      0.000000     -0.000000
      8.72000      2.18000      2.18000        -0.000000     -0.000000      0.000000
      0.00000      4.36000      0.00000        -0.000000      0.000000     -0.000000
      0.00000      8.72000      0.00000        -0.000000      0.000000      0.000000
      2.18000      6.54000      0.00000        -0.000000     -0.000000     -0.000000
      2.18000     10.90000      0.00000         0.000000      0.000000      0.000000
      2.18000      4.36000      2.18000         0.000000     -0.000000     -0.000000
      2.18000      8.72000      2.18000         0.000000     -0.000000      0.000000
      0.00000      6.54000      2.18000        -0.000000      0.000000      0.000000
      0.00000     10.90000      2.18000         0.000000     -0.000000     -0.000000
      4.36000      4.36000      0.00000        -0.000000     -0.000000     -0.000000
      4.36000      8.72000      0.00000         0.000000     -0.000000     -0.000000
      8.72000      4.36000      0.00000         0.000000     -0.000000      0.000000
      8.72000      8.72000      0.00000        -0.000000     -0.000000     -0.000000
      6.54000      6.54000      0.00000         0.000000     -0.000000     -0.000000
      6.54000     10.90000      0.00000        -0.000000     -0.000000     -0.000000
     10.90000      6.54000      0.00000        -0.000000     -0.000000      0.000000
     10.90000     10.90000      0.00000         0.000000      0.000000     -0.000000
      6.54000      4.36000      2.18000         0.000000     -0.000000     -0.000000
      6.54000      8.72000      2.18000        -0.000000      0.000000     -0.000000
     10.90000      4.36000      2.18000        -0.000000     -0.000000      0.000000
     10.90000      8.72000      2.18000        -0.000000     -0.000000     -0.000000
      4.36000      6.54000      2.18000        -0.000000     -0.000000      0.000000
      4.36000     10.90000      2.18000        -0.000000     -0.000000      0.000000
      8.72000      6.54000      2.18000        -0.000000      0.000000     -0.000000
      8.72000     10.90000      2.18000         0.000000     -0.000000     -0.000000
      0.00000      0.00000      4.36000        -0.000000      0.000000      0.000000
      0.00000      0.00000      8.72000         0.000000     -0.000000      0.000000
      2.18000      2.18000      4.36000        -0.000000      0.000000     -0.000000
      2.18000      2.18000      8.72000        -0.000000      0.000000      0.000000
      2.18000      0.00000      6.54000        -0.000000      0.000000     -0.000000
      2.18000      0.00000     10.90000         0.000000      0.000000      0.000000
      0.00000      2.18000      6.54000         0.000000     -0.000000      0.000000
      0.00000      2.18000     10.90000         0.000000     -0.000000     -0.000000
      4.36000      0.00000      4.36000         0.000000      0.000000     -0.000000
      4.36000      0.00000      8.72000        -0.000000     -0.000000     -0.000000
      8.72000      0.00000      4.36000         0.000000     -0.000000      0.000000
      8.72000      0.00000      8.72000        -0.000000     -0.000000     -0.000000
      6.54000      2.18000      4.36000         0.000000      0.000000     -0.000000
      6.54000      2.18000      8.72000        -0.000000     -0.000000     -0.000000
     10.90000      2.18000      4.36000        -0.000000      0.000000      0.000000
     10.90000      2.18000      8.72000        -0.000000      0.000000     -0.000000
      6.54000      0.00000      6.54000        -0.000000     -0.000000     -0.000000
      6.54000      0.00000     10.90000        -0.000000      0.000000     -0.000000
     10.90000      0.00000      6.54000        -0.000000     -0.000000      0.000000
     10.90000      0.00000     10.90000        -0.000000      0.000000     -0.000000
      4.36000      2.18000      6.54000        -0.000000      0.000000     -0.000000
      4.36000      2.18000     10.90000         0.000000     -0.000000      0.000000
      8.72000      2.18000      6.54000        -0.000000      0.000000     -0.000000
      8.72000      2.18000     10.90000         0.000000      0.000000     -0.000000
      0.00000      4.36000      4.36000         0.000000      0.000000      0.000000
      0.00000      4.36000      8.72000         0.000000     -0.000000      0.000000
      0.00000      8.72000      4.36000         0.000000     -0.000000     -0.000000
      0.00000      8.72000      8.72000         0.000000      0.000000     -0.000000
      2.18000      6.54000      4.36000        -0.000000      0.000000     -0.000000
      2.18000      6.54000      8.72000         0.000000     -0.000000      0.000000
      2.18000     10.90000      4.36000        -0.000000     -0.000000     -0.000000
      2.18000     10.90000      8.72000         0.000000      0.000000     -0.000000
      2.18000      4.36000      6.54000         0.000000      0.000000      0.000000
      2.18000      4.36000     10.90000        -0.000000     -0.000000     -0.000000
      2.18000      8.72000      6.54000        -0.000000      0.000000     -0.000000
      2.18000      8.72000     10.90000        -0.000000     -0.000000     -0.000000
      0.00000      6.54000      6.54000        -0.000000      0.000000     -0.000000
      0.00000      6.54000     10.90000        -0.000000     -0.000000     -0.000000
      0.00000     10.90000      6.54000        -0.000000      0.000000     -0.000000
      0.00000     10.90000     10.90000         0.000000     -0.000000      0.000000
      4.36000      4.36000      4.36000        -0.000000     -0.000000     -0.000000
      4.36000      4.36000      8.72000        -0.000000      0.000000      0.000000
      4.36000      8.72000      4.36000         0.000000     -0.000000      0.000000
      4.36000      8.72000      8.72000        -0.000000      0.000000     -0.000000
      8.72000      4.36000      4.36000         0.000000      0.000000     -0.000000
      8.72000      4.36000      8.72000         0.000000      0.000000     -0.000000
      8.72000      8.72000      4.36000        -0.000000      0.000000     -0.000000
      8.72000      8.72000      8.72000        -0.000000      0.000000      0.000000
      6.54000      6.54000      4.36000        -0.000000     -0.000000     -0.000000
      6.54000      6.54000      8.72000         0.000000     -0.000000      0.000000
      6.54000     10.90000      4.36000        -0.000000     -0.000000      0.000000
      6.54000     10.90000      8.72000        -0.000000      0.000000      0.000000
     10.90000      6.54000      4.36000         0.000000      0.000000     -0.000000
     10.90000      6.54000      8.72000         0.000000     -0.000000     -0.000000
     10.90000     10.90000      4.36000        -0.000000      0.000000     -0.000000
     10.90000     10.90000      8.72000        -0.000000      0.000000      0.000000
      6.54000      4.36000      6.54000         0.000000     -0.000000     -0.000000
      6.54000      4.36000     10.90000        -0.000000      0.000000      0.000000
      6.54000      8.72000      6.54000        -0.000000      0.000000      0.000000
      6.54000      8.72000     10.90000        -0.000000     -0.000000     -0.000000
     10.90000      4.36000      6.54000         0.000000      0.000000     -0.000000
     10.90000      4.36000     10.90000         0.000000     -0.000000     -0.000000
     10.90000      8.72000      6.54000        -0.000000     -0.000000     -0.000000
     10.90000      8.72000     10.90000         0.000000     -0.000000      0.000000
      4.36000      6.54000      6.54000         0.000000     -0.000000      0.000000
      4.36000      6.54000     10.90000        -0.000000     -0.000000     -0.000000
      4.36000     10.90000      6.54000        -0.000000     -0.000000     -0.000000
      4.36000     10.90000     10.90000         0.000000      0.000000     -0.000000
      8.72000      6.54000      6.54000         0.000000     -0.000000     -0.000000
      8.72000      6.54000     10.90000         0.000000      0.000000      0.000000
      8.72000     10.90000      6.54000        -0.000000      0.000000     -0.000000
      8.72000     10.90000     10.90000         0.000000      0.000000     -0.000000
      1.09000      1.09000      1.09000        -0.000000     -0.000000      0.000000
      3.27000      3.27000      1.09000         0.000000     -0.000000      0.000000
      1.09000      3.27000      3.27000         0.000000     -0.000000     -0.000000
      3.27000      1.09000      3.27000        -0.000000      0.000000      0.000000
      5.45000      1.09000      1.09000        -0.000000     -0.000000      0.000000
      9.81000      1.09000      1.09000         0.000000     -0.000000     -0.000000
      7.63000      3.27000      1.09000        -0.000000     -0.000000      0.000000
     11.99000      3.27000      1.09000        -0.000000      0.000000     -0.000000
      5.45000      3.27000      3.27000        -0.000000     -0.000000      0.000000
      9.81000      3.27000      3.27000        -0.000000     -0.000000      0.000000
      7.63000      1.09000      3.27000        -0.000000      0.000000      0.000000
     11.99000      1.09000      3.27000        -0.000000      0.000000     -0.000000
      1.09000      5.45000      1.09000         0.000000      0.000000     -0.000000
      1.09000      9.81000      1.09000         0.000000     -0.000000      0.000000
      3.27000      7.63000      1.09000         0.000000     -0.000000     -0.000000
      3.27000     11.99000      1.09000         0.000000     -0.000000      0.000000
      1.09000      7.63000      3.27000        -0.000000     -0.000000      0.000000
      1.09000     11.99000      3.27000         0.000000     -0.000000      0.000000
      3.27000      5.45000      3.27000         0.000000     -0.000000     -0.000000
      3.27000      9.81000      3.27000        -0.000000     -0.000000      0.000000
      5.45000      5.45000      1.09000         0.000000      0.000000      0.000000
      5.45000      9.81000      1.09000         0.000000      0.000000     -0.000000
      9.81000      5.45000      1.09000         0.000000     -0.000000      0.000000
      9.81000      9.81000      1.09000         0.000000     -0.000000      0.000000
      7.63000      7.63000      1.09000        -0.000000      0.000000      0.000000
      7.63000     11.99000      1.09000         0.000000      0.000000     -0.000000
     11.99000      7.63000      1.09000        -0.000000      0.000000      0.000000
     11.99000     11.99000      1.09000         0.000000     -0.000000      0.000000
      5.45000      7.63000      3.27000        -0.000000     -0.000000     -0.000000
      5.45000     11.99000      3.27000        -0.000000      0.000000      0.000000
      9.81000      7.63000      3.27000        -0.000000     -0.000000      0.000000
      9.81000     11.99000      3.27000         0.000000      0.000000     -0.000000
      7.63000      5.45000      3.27000        -0.000000     -0.000000      0.000000
      7.63000      9.81000      3.27000         0.000000     -0.000000     -0.000000
     11.99000      5.45000      3.27000        -0.000000      0.000000      0.000000
     11.99000      9.81000      3.27000         0.000000     -0.000000      0.000000
      1.09000      1.09000      5.45000         0.000000      0.000000     -0.000000
      1.09000      1.09000      9.81000        -0.000000      0.000000      0.000000
      3.27000      3.27000      5.45000         0.000000     -0.000000     -0.000000
      3.27000      3.27000      9.81000        -0.000000      0.000000      0.000000
      1.09000      3.27000      7.63000         0.000000     -0.000000      0.000000
      1.09000      3.27000     11.99000        -0.000000     -0.000000      0.000000
      3.27000      1.09000      7.63000         0.000000     -0.000000     -0.000000
      3.27000      1.09000     11.99000         0.000000      0.000000      0.000000
      5.45000      1.09000      5.45000        -0.000000     -0.000000      0.000000
      5.45000      1.09000      9.81000         0.000000     -0.000000     -0.000000
      9.81000      1.09000      5.45000        -0.000000     -0.000000      0.000000
      9.81000      1.09000      9.81000        -0.000000      0.000000      0.000000
      7.63000      3.27000      5.45000         0.000000     -0.000000      0.000000
      7.63000      3.27000      9.81000         0.000000     -0.000000     -0.000000
     11.99000      3.27000      5.45000        -0.000000     -0.000000      0.000000
     11.99000      3.27000      9.81000         0.000000     -0.000000      0.000000
      5.45000      3.27000      7.63000        -0.000000     -0.000000     -0.000000
      5.45000      3.27000     11.99000         0.000000     -0.000000      0.000000
      9.81000      3.27000      7.63000        -0.000000     -0.000000      0.000000
      9.81000      3.27000     11.99000        -0.000000      0.000000     -0.000000
      7.63000      1.09000      7.63000        -0.000000     -0.000000      0.000000
      7.63000      1.09000     11.99000         0.000000     -0.000000     -0.000000
     11.99000      1.09000      7.63000        -0.000000      0.000000      0.000000
     11.99000      1.09000     11.99000        -0.000000     -0.000000      0.000000
      1.09000      5.45000      5.45000         0.000000     -0.000000      0.000000
      1.09000      5.45000      9.81000         0.000000      0.000000      0.000000
      1.09000      9.81000      5.45000         0.000000     -0.000000      0.000000
      1.09000      9.81000      9.81000         0.000000     -0.000000     -0.000000
      3.27000      7.63000      5.45000        -0.000000     -0.000000      0.000000
      3.27000      7.63000      9.81000         0.000000      0.000000      0.000000
      3.27000     11.99000      5.45000        -0.000000     -0.000000      0.000000
      3.27000     11.99000      9.81000         0.000000      0.000000     -0.000000
      1.09000      7.63000      7.63000         0.000000     -0.000000      0.000000
      1.09000      7.63000     11.99000         0.000000      0.000000     -0.000000
      1.09000     11.99000      7.63000         0.000000      0.000000     -0.000000
      1.09000     11.99000     11.99000         0.000000      0.000000      0.000000
      3.27000      5.45000      7.63000        -0.000000      0.000000      0.000000
      3.27000      5.45000     11.99000         0.000000      0.000000      0.000000
      3.27000      9.81000      7.63000        -0.000000     -0.000000      0.000000
      3.27000      9.81000     11.99000         0.000000     -0.000000     -0.000000
      5.45000      5.45000      5.45000         0.000000     -0.000000      0.000000
      5.45000      5.45000      9.81000        -0.000000     -0.000000      0.000000
      5.45000      9.81000      5.45000         0.000000     -0.000000      0.000000
      5.45000      9.81000      9.81000         0.000000     -0.000000      0.000000
      9.81000      5.45000      5.45000        -0.000000     -0.000000      0.000000
      9.81000      5.45000      9.81000         0.000000     -0.000000     -0.000000
      9.81000      9.81000      5.45000         0.000000     -0.000000     -0.000000
      9.81000      9.81000      9.81000        -0.000000     -0.000000      0.000000
      7.63000      7.63000      5.45000        -0.000000      0.000000     -0.000000
      7.63000      7.63000      9.81000        -0.000000     -0.000000      0.000000
      7.63000     11.99000      5.45000         0.000000     -0.000000      0.000000
      7.63000     11.99000      9.81000        -0.000000      0.000000      0.000000
     11.99000      7.63000      5.45000        -0.000000     -0.000000      0.000000
     11.99000      7.63000      9.81000         0.000000     -0.000000     -0.000000
     11.99000     11.99000      5.45000        -0.000000     -0.000000     -0.000000
     11.99000     11.99000      9.81000        -0.000000      0.000000      0.000000
      5.45000      7.63000      7.63000         0.000000      0.000000      0.000000
      5.45000      7.63000     11.99000         0.000000     -0.000000      0.000000
      5.45000     11.99000      7.63000         0.000000     -0.000000      0.000000
      5.45000     11.99000     11.99000        -0.000000     -0.000000     -0.000000
      9.81000      7.63000      7.63000        -0.000000      0.000000     -0.000000
      9.81000      7.63000     11.99000        -0.000000      0.000000      0.000000
      9.81000     11.99000      7.63000        -0.000000      0.000000      0.000000
      9.81000     11.99000     11.99000        -0.000000      0.000000      0.000000
      7.63000      5.45000      7.63000         0.000000     -0.000000     -0.000000
      7.63000      5.45000     11.99000         0.000000     -0.000000      0.000000
      7.63000      9.81000      7.63000        -0.000000     -0.000000      0.000000
      7.63000      9.81000     11.99000         0.000000      0.000000      0.000000
     11.99000      5.45000      7.63000        -0.000000      0.000000      0.000000
     11.99000      5.45000     11.99000        -0.000000      0.000000      0.000000
     11.99000      9.81000      7.63000         0.000000     -0.000000     -0.000000
     11.99000      9.81000     11.99000         0.000000     -0.000000      0.000000
 -----------------------------------------------------------------------------------
    total drift:                                0.000000     -0.000000      0.000005


--------------------------------------------------------------------------------------------------------



  FREE ENERGIE OF THE ION-ELECTRON SYSTEM (eV)
  ---------------------------------------------------
  free  energy   TOTEN  =     -1625.62823120 eV

  energy  without entropy=    -1625.62823120  energy(sigma->0) =    -1625.62823120
 


--------------------------------------------------------------------------------------------------------


    POTLOK:  cpu time    1.2608: real time    1.2592


--------------------------------------------------------------------------------------------------------




--------------------------------------------------------------------------------------------------------


  
 reached required accuracy - stopping structural energy minimisation
     LOOP+:  cpu time  810.0059: real time  809.8241
    4ORBIT:  cpu time    0.0000: real time    0.0000

 total amount of memory used by VASP on root node   617946. kBytes
========================================================================

   base      :      30000. kBytes
   nonlr-proj:      18673. kBytes
   fftplans  :      72476. kBytes
   grid      :     129302. kBytes
   one-center:        663. kBytes
   wavefun   :     366832. kBytes
 
  
  
 General timing and accounting informations for this job:
 ========================================================
  
                  Total CPU time used (sec):      822.525
                            User time (sec):      821.567
                          System time (sec):        0.958
                         Elapsed time (sec):      822.648
  
                   Maximum memory used (kb):      795956.
                   Average memory used (kb):           0.
  
                          Minor page faults:       232150
                          Major page faults:            1
                 Voluntary context switches:          331
