<?xml version="1.0" encoding="ISO-8859-1"?>
<modeling>
 <generator>
  <i name="program" type="string">vasp </i>
  <i name="version" type="string">5.4.1  </i>
  <i name="subversion" type="string">05Feb16 (build Oct 12 2016 17:31:35) complex                          parallel </i>
  <i name="platform" type="string">IFC91_ompi </i>
  <i name="date" type="string">2018 05 23 </i>
  <i name="time" type="string">10:22:31 </i>
 </generator>
 <incar>
  <i type="string" name="SYSTEM"> Silicon</i>
  <i type="int" name="ISTART">     0</i>
  <i type="string" name="PREC">normal</i>
  <i type="string" name="ALGO"> Fast    ! Controls diagonalization algo</i>
  <i type="int" name="ICHARG">     2</i>
  <i type="int" name="NELM">   120</i>
  <i type="int" name="NELMIN">     2</i>
  <i type="int" name="IBRION">     2</i>
  <i name="EDIFF">      0.00000100</i>
  <i name="EDIFFG">     -0.01000000</i>
  <i type="int" name="NSW">   200</i>
  <i type="int" name="ISIF">     2</i>
  <i name="SYMPREC">      0.00010000</i>
  <i name="ENCUT">    400.00000000</i>
  <i type="int" name="NEDOS">  5000</i>
  <i type="string" name="LREAL"> Auto  ! Real space project yes/no</i>
  <i type="int" name="ISMEAR">     0</i>
  <i name="SIGMA">      0.05000000</i>
  <i type="logical" name="LWAVE"> F  </i>
  <i type="logical" name="LCHARG"> F  </i>
  <i type="logical" name="LVTOT"> F  </i>
  <i type="logical" name="LVHAR"> F  </i>
  <v type="int" name="KPOINT_BSE">    -1     0     0     0</v>
  <i type="int" name="NELM">   120</i>
 </incar>
 <kpoints>
  <generation param="Monkhorst-Pack">
   <v type="int" name="divisions">       1        1        1 </v>
   <v name="usershift">      0.00000000       0.00000000       0.00000000 </v>
   <v name="genvec1">      1.00000000       0.00000000       0.00000000 </v>
   <v name="genvec2">      0.00000000       1.00000000       0.00000000 </v>
   <v name="genvec3">      0.00000000       0.00000000       1.00000000 </v>
   <v name="shift">      0.00000000       0.00000000       0.00000000 </v>
  </generation>
  <varray name="kpointlist" >
   <v>       0.00000000       0.00000000       0.00000000 </v>
  </varray>
  <varray name="weights" >
   <v>       1.00000000 </v>
  </varray>
 </kpoints>
 <parameters>
  <separator name="general" >
   <i type="string" name="SYSTEM">Silicon</i>
   <i type="logical" name="LCOMPAT"> F  </i>
  </separator>
  <separator name="electronic" >
   <i type="string" name="PREC">normal</i>
   <i name="ENMAX">    400.00000000</i>
   <i name="ENAUG">    644.87300000</i>
   <i name="EDIFF">      0.00000100</i>
   <i type="int" name="IALGO">    68</i>
   <i type="int" name="IWAVPR">    11</i>
   <i type="int" name="NBANDS">   541</i>
   <i name="NELECT">    864.00000000</i>
   <i type="int" name="TURBO">     0</i>
   <i type="int" name="IRESTART">     0</i>
   <i type="int" name="NREBOOT">     0</i>
   <i type="int" name="NMIN">     0</i>
   <i name="EREF">      0.00000000</i>
   <separator name="electronic smearing" >
    <i type="int" name="ISMEAR">     0</i>
    <i name="SIGMA">      0.05000000</i>
    <i name="KSPACING">      0.50000000</i>
    <i type="logical" name="KGAMMA"> T  </i>
   </separator>
   <separator name="electronic projectors" >
    <i type="logical" name="LREAL"> T  </i>
    <v name="ROPT">     -0.00050000     -0.00050000</v>
    <i type="int" name="LMAXPAW">  -100</i>
    <i type="int" name="LMAXMIX">     2</i>
    <i type="logical" name="NLSPLINE"> F  </i>
   </separator>
   <separator name="electronic startup" >
    <i type="int" name="ISTART">     0</i>
    <i type="int" name="ICHARG">     2</i>
    <i type="int" name="INIWAV">     1</i>
   </separator>
   <separator name="electronic spin" >
    <i type="int" name="ISPIN">     1</i>
    <i type="logical" name="LNONCOLLINEAR"> F  </i>
    <v name="MAGMOM">      1.00000000      1.00000000      1.00000000      1.00000000      1.00000000      1.00000000      1.00000000      1.00000000      1.00000000      1.00000000      1.00000000      1.00000000      1.00000000      1.00000000      1.00000000      1.00000000      1.00000000      1.00000000      1.00000000      1.00000000
      1.00000000      1.00000000      1.00000000      1.00000000      1.00000000      1.00000000      1.00000000      1.00000000      1.00000000      1.00000000      1.00000000      1.00000000      1.00000000      1.00000000      1.00000000      1.00000000      1.00000000      1.00000000      1.00000000      1.00000000
      1.00000000      1.00000000      1.00000000      1.00000000      1.00000000      1.00000000      1.00000000      1.00000000      1.00000000      1.00000000      1.00000000      1.00000000      1.00000000      1.00000000      1.00000000      1.00000000      1.00000000      1.00000000      1.00000000      1.00000000
      1.00000000      1.00000000      1.00000000      1.00000000      1.00000000      1.00000000      1.00000000      1.00000000      1.00000000      1.00000000      1.00000000      1.00000000      1.00000000      1.00000000      1.00000000      1.00000000      1.00000000      1.00000000      1.00000000      1.00000000
      1.00000000      1.00000000      1.00000000      1.00000000      1.00000000      1.00000000      1.00000000      1.00000000      1.00000000      1.00000000      1.00000000      1.00000000      1.00000000      1.00000000      1.00000000      1.00000000      1.00000000      1.00000000      1.00000000      1.00000000
      1.00000000      1.00000000      1.00000000      1.00000000      1.00000000      1.00000000      1.00000000      1.00000000      1.00000000      1.00000000      1.00000000      1.00000000      1.00000000      1.00000000      1.00000000      1.00000000      1.00000000      1.00000000      1.00000000      1.00000000
      1.00000000      1.00000000      1.00000000      1.00000000      1.00000000      1.00000000      1.00000000      1.00000000      1.00000000      1.00000000      1.00000000      1.00000000      1.00000000      1.00000000      1.00000000      1.00000000      1.00000000      1.00000000      1.00000000      1.00000000
      1.00000000      1.00000000      1.00000000      1.00000000      1.00000000      1.00000000      1.00000000      1.00000000      1.00000000      1.00000000      1.00000000      1.00000000      1.00000000      1.00000000      1.00000000      1.00000000      1.00000000      1.00000000      1.00000000      1.00000000
      1.00000000      1.00000000      1.00000000      1.00000000      1.00000000      1.00000000      1.00000000      1.00000000      1.00000000      1.00000000      1.00000000      1.00000000      1.00000000      1.00000000      1.00000000      1.00000000      1.00000000      1.00000000      1.00000000      1.00000000
      1.00000000      1.00000000      1.00000000      1.00000000      1.00000000      1.00000000      1.00000000      1.00000000      1.00000000      1.00000000      1.00000000      1.00000000      1.00000000      1.00000000      1.00000000      1.00000000      1.00000000      1.00000000      1.00000000      1.00000000
      1.00000000      1.00000000      1.00000000      1.00000000      1.00000000      1.00000000      1.00000000      1.00000000      1.00000000      1.00000000      1.00000000      1.00000000      1.00000000      1.00000000      1.00000000      1.00000000</v>
    <i name="NUPDOWN">     -1.00000000</i>
    <i type="logical" name="LSORBIT"> F  </i>
    <v name="SAXIS">      0.00000000      0.00000000      1.00000000</v>
    <i type="logical" name="LSPIRAL"> F  </i>
    <v name="QSPIRAL">      0.00000000      0.00000000      0.00000000</v>
    <i type="logical" name="LZEROZ"> F  </i>
   </separator>
   <separator name="electronic exchange-correlation" >
    <i type="logical" name="LASPH"> F  </i>
    <i type="logical" name="LMETAGGA"> F  </i>
   </separator>
   <separator name="electronic convergence" >
    <i type="int" name="NELM">   120</i>
    <i type="int" name="NELMDL">    -5</i>
    <i type="int" name="NELMIN">     2</i>
    <i name="ENINI">    400.00000000</i>
    <separator name="electronic convergence detail" >
     <i type="logical" name="LDIAG"> T  </i>
     <i type="logical" name="LSUBROT"> F  </i>
     <i name="WEIMIN">      0.00100000</i>
     <i name="EBREAK">      0.00000000</i>
     <i name="DEPER">      0.30000000</i>
     <i type="int" name="NRMM">     4</i>
     <i name="TIME">      0.40000000</i>
    </separator>
   </separator>
   <separator name="electronic mixer" >
    <i name="AMIX">      0.40000000</i>
    <i name="BMIX">      1.00000000</i>
    <i name="AMIN">      0.10000000</i>
    <i name="AMIX_MAG">      1.60000000</i>
    <i name="BMIX_MAG">      1.00000000</i>
    <separator name="electronic mixer details" >
     <i type="int" name="IMIX">     4</i>
     <i type="logical" name="MIXFIRST"> F  </i>
     <i type="int" name="MAXMIX">   -45</i>
     <i name="WC">    100.00000000</i>
     <i type="int" name="INIMIX">     1</i>
     <i type="int" name="MIXPRE">     1</i>
     <i type="int" name="MREMOVE">     5</i>
    </separator>
   </separator>
   <separator name="electronic dipolcorrection" >
    <i type="logical" name="LDIPOL"> F  </i>
    <i type="logical" name="LMONO"> F  </i>
    <i type="int" name="IDIPOL">     0</i>
    <i name="EPSILON">      1.00000000</i>
    <v name="DIPOL">   -100.00000000   -100.00000000   -100.00000000</v>
    <i name="EFIELD">      0.00000000</i>
   </separator>
  </separator>
  <separator name="grids" >
   <i type="int" name="NGX">    64</i>
   <i type="int" name="NGY">    64</i>
   <i type="int" name="NGZ">    64</i>
   <i type="int" name="NGXF">   128</i>
   <i type="int" name="NGYF">   128</i>
   <i type="int" name="NGZF">   128</i>
   <i type="logical" name="ADDGRID"> F  </i>
  </separator>
  <separator name="ionic" >
   <i type="int" name="NSW">   200</i>
   <i type="int" name="IBRION">     2</i>
   <i type="int" name="ISIF">     2</i>
   <i name="PSTRESS">      0.00000000</i>
   <i name="EDIFFG">     -0.01000000</i>
   <i type="int" name="NFREE">     1</i>
   <i name="POTIM">      0.50000000</i>
   <i name="SMASS">     -3.00000000</i>
   <i name="SCALEE">      1.00000000</i>
  </separator>
  <separator name="ionic md" >
   <i name="TEBEG">      0.00010000</i>
   <i name="TEEND">      0.00010000</i>
   <i type="int" name="NBLOCK">     1</i>
   <i type="int" name="KBLOCK">   200</i>
   <i type="int" name="NPACO">   256</i>
   <i name="APACO">     16.00000000</i>
  </separator>
  <separator name="symmetry" >
   <i type="int" name="ISYM">     2</i>
   <i name="SYMPREC">      0.00010000</i>
  </separator>
  <separator name="dos" >
   <i type="logical" name="LORBIT"> F  </i>
   <v name="RWIGS">     -1.00000000     -1.00000000</v>
   <i type="int" name="NEDOS">  5000</i>
   <i name="EMIN">     10.00000000</i>
   <i name="EMAX">    -10.00000000</i>
   <i name="EFERMI">      0.00000000</i>
  </separator>
  <separator name="writing" >
   <i type="int" name="NWRITE">     2</i>
   <i type="logical" name="LWAVE"> F  </i>
   <i type="logical" name="LCHARG"> F  </i>
   <i type="logical" name="LPARD"> F  </i>
   <i type="logical" name="LVTOT"> F  </i>
   <i type="logical" name="LVHAR"> F  </i>
   <i type="logical" name="LELF"> F  </i>
   <i type="logical" name="LOPTICS"> F  </i>
   <v name="STM">      0.00000000      0.00000000      0.00000000      0.00000000      0.00000000      0.00000000      0.00000000</v>
  </separator>
  <separator name="performance" >
   <i type="int" name="NPAR">     1</i>
   <i type="int" name="NSIM">     4</i>
   <i type="int" name="NBLK">    -1</i>
   <i type="logical" name="LPLANE"> T  </i>
   <i type="logical" name="LSCALAPACK"> T  </i>
   <i type="logical" name="LSCAAWARE"> F  </i>
   <i type="logical" name="LSCALU"> F  </i>
   <i type="logical" name="LASYNC"> F  </i>
   <i type="logical" name="LORBITALREAL"> F  </i>
  </separator>
  <separator name="miscellaneous" >
   <i type="int" name="IDIOT">     3</i>
   <i type="logical" name="LMUSIC"> F  </i>
   <v name="POMASS">     12.01100000     28.08500000</v>
   <v name="DARWINR">      0.00000000      0.00000000</v>
   <v name="DARWINV">      1.00000000      1.00000000</v>
   <i type="logical" name="LCORR"> T  </i>
  </separator>
  <i type="logical" name="GGA_COMPAT"> T  </i>
  <i type="logical" name="LBERRY"> F  </i>
  <i type="int" name="ICORELEVEL">     0</i>
  <i type="logical" name="LDAU"> F  </i>
  <i type="int" name="I_CONSTRAINED_M">     0</i>
  <separator name="electronic exchange-correlation" >
   <i type="string" name="GGA">--</i>
   <i type="int" name="VOSKOWN">     0</i>
   <i type="logical" name="LHFCALC"> F  </i>
   <i type="string" name="PRECFOCK"></i>
   <i type="logical" name="LSYMGRAD"> F  </i>
   <i type="logical" name="LHFONE"> F  </i>
   <i type="logical" name="LRHFCALC"> F  </i>
   <i type="logical" name="LTHOMAS"> F  </i>
   <i type="logical" name="LMODELHF"> F  </i>
   <i name="ENCUT4O">     -1.00000000</i>
   <i type="int" name="EXXOEP">     0</i>
   <i type="int" name="FOURORBIT">     0</i>
   <i name="AEXX">      0.00000000</i>
   <i name="HFALPHA">      0.00000000</i>
   <i name="MCALPHA">      0.00000000</i>
   <i name="ALDAX">      1.00000000</i>
   <i name="AGGAX">      1.00000000</i>
   <i name="ALDAC">      1.00000000</i>
   <i name="AGGAC">      1.00000000</i>
   <i type="int" name="NKREDX">     1</i>
   <i type="int" name="NKREDY">     1</i>
   <i type="int" name="NKREDZ">     1</i>
   <i type="logical" name="SHIFTRED"> F  </i>
   <i type="logical" name="ODDONLY"> F  </i>
   <i type="logical" name="EVENONLY"> F  </i>
   <i type="int" name="LMAXFOCK">     0</i>
   <i type="int" name="NMAXFOCKAE">     0</i>
   <i type="logical" name="LFOCKAEDFT"> F  </i>
   <i name="HFSCREEN">      0.00000000</i>
   <i name="HFSCREENC">      0.00000000</i>
   <i type="int" name="NBANDSGWLOW">     0</i>
  </separator>
  <separator name="vdW DFT" >
   <i type="logical" name="LUSE_VDW"> F  </i>
   <i name="Zab_VDW">     -0.84910000</i>
   <i name="PARAM1">      0.12340000</i>
   <i name="PARAM2">      1.00000000</i>
   <i name="PARAM3">      0.00000000</i>
  </separator>
  <separator name="model GW" >
   <i type="int" name="MODEL_GW">     0</i>
   <i name="MODEL_EPS0">      6.21613920</i>
   <i name="MODEL_ALPHA">      1.00000000</i>
  </separator>
  <separator name="linear response parameters" >
   <i type="logical" name="LEPSILON"> F  </i>
   <i type="logical" name="LRPA"> F  </i>
   <i type="logical" name="LNABLA"> F  </i>
   <i type="logical" name="LVEL"> F  </i>
   <i type="int" name="KINTER">     0</i>
   <i name="CSHIFT">      0.10000000</i>
   <i name="OMEGAMAX">     -1.00000000</i>
   <i name="DEG_THRESHOLD">      0.00200000</i>
  </separator>
  <separator name="orbital magnetization" >
   <i type="logical" name="NUCIND"> F  </i>
   <v name="MAGPOS">      0.00000000      0.00000000      0.00000000</v>
   <i type="logical" name="LNICSALL"> T  </i>
   <i type="logical" name="ORBITALMAG"> F  </i>
   <i type="logical" name="LMAGBLOCH"> F  </i>
   <i type="logical" name="LCHIMAG"> F  </i>
   <i type="logical" name="LGAUGE"> T  </i>
   <i type="int" name="MAGATOM">     0</i>
   <v name="MAGDIPOL">      0.00000000      0.00000000      0.00000000</v>
   <v name="AVECCONST">      0.00000000      0.00000000      0.00000000</v>
  </separator>
  <separator name="response functions" >
   <i type="logical" name="LADDER"> F  </i>
   <i type="logical" name="LFXC"> F  </i>
   <i type="logical" name="LHARTREE"> T  </i>
   <i type="int" name="IBSE">     0</i>
   <v type="int" name="KPOINT">    -1     0     0     0</v>
   <i type="logical" name="LTCTE"> F  </i>
   <i type="logical" name="LTETE"> F  </i>
   <i type="logical" name="LTRIPLET"> F  </i>
   <i type="logical" name="LFXCEPS"> F  </i>
   <i type="logical" name="LFXHEG"> F  </i>
   <i type="int" name="NATURALO">     0</i>
   <i type="logical" name="L2ORDER"> F  </i>
   <i type="logical" name="LUSEW"> F  </i>
   <i name="ENCUTGW">     -2.00000000</i>
   <i name="ENCUTGWSOFT">     -2.00000000</i>
   <i name="ENCUTLF">     -1.00000000</i>
   <i type="int" name="LMAXMP2">    -1</i>
   <i name="SCISSOR">      0.00000000</i>
   <i type="int" name="NOMEGA">     0</i>
   <i type="int" name="NOMEGAR">     0</i>
   <i type="int" name="NBANDSGW">    -1</i>
   <i type="int" name="NBANDSO">    -1</i>
   <i type="int" name="NBANDSV">    -1</i>
   <i type="int" name="NELM">   120</i>
   <i type="int" name="NELMHF">     1</i>
   <i type="int" name="DIM">     3</i>
   <i type="int" name="ANTIRES">     0</i>
   <i name="OMEGAMAX">    -30.00000000</i>
   <i name="OMEGAMIN">    -30.00000000</i>
   <i name="OMEGATL">   -200.00000000</i>
   <i type="int" name="OMEGAGRID">     0</i>
   <i name="CSHIFT">     -0.10000000</i>
   <i type="logical" name="SELFENERGY"> F  </i>
   <i type="logical" name="LSPECTRAL"> F  </i>
   <i type="logical" name="LSPECTRALGW"> F  </i>
   <i type="logical" name="LSINGLES"> F  </i>
   <i type="logical" name="LFERMIGW"> F  </i>
   <i type="logical" name="ODDONLYGW"> F  </i>
   <i type="logical" name="EVENONLYGW"> F  </i>
   <i type="int" name="NKREDLFX">     1</i>
   <i type="int" name="NKREDLFY">     1</i>
   <i type="int" name="NKREDLFZ">     1</i>
   <i type="int" name="MAXMEM">  1800</i>
   <i type="int" name="TELESCOPE">     0</i>
   <i type="int" name="TAUPAR">     1</i>
   <i type="int" name="OMEGAPAR">    -1</i>
   <i name="LAMBDA">      1.00000000</i>
  </separator>
  <separator name="External order field" >
   <i name="OFIELD_KAPPA">      0.00000000</i>
   <v name="OFIELD_K">      0.00000000      0.00000000      0.00000000</v>
   <i name="OFIELD_Q6_NEAR">      0.00000000</i>
   <i name="OFIELD_Q6_FAR">      0.00000000</i>
   <i name="OFIELD_A">      0.00000000</i>
  </separator>
 </parameters>
 <atominfo>
  <atoms>     216 </atoms>
  <types>       2 </types>
  <array name="atoms" >
   <dimension dim="1">ion</dimension>
   <field type="string">element</field>
   <field type="int">atomtype</field>
   <set>
    <rc><c>C </c><c>   1</c></rc>
    <rc><c>C </c><c>   1</c></rc>
    <rc><c>C </c><c>   1</c></rc>
    <rc><c>C </c><c>   1</c></rc>
    <rc><c>C </c><c>   1</c></rc>
    <rc><c>C </c><c>   1</c></rc>
    <rc><c>C </c><c>   1</c></rc>
    <rc><c>C </c><c>   1</c></rc>
    <rc><c>C </c><c>   1</c></rc>
    <rc><c>C </c><c>   1</c></rc>
    <rc><c>C </c><c>   1</c></rc>
    <rc><c>C </c><c>   1</c></rc>
    <rc><c>C </c><c>   1</c></rc>
    <rc><c>C </c><c>   1</c></rc>
    <rc><c>C </c><c>   1</c></rc>
    <rc><c>C </c><c>   1</c></rc>
    <rc><c>C </c><c>   1</c></rc>
    <rc><c>C </c><c>   1</c></rc>
    <rc><c>C </c><c>   1</c></rc>
    <rc><c>C </c><c>   1</c></rc>
    <rc><c>C </c><c>   1</c></rc>
    <rc><c>C </c><c>   1</c></rc>
    <rc><c>C </c><c>   1</c></rc>
    <rc><c>C </c><c>   1</c></rc>
    <rc><c>C </c><c>   1</c></rc>
    <rc><c>C </c><c>   1</c></rc>
    <rc><c>C </c><c>   1</c></rc>
    <rc><c>C </c><c>   1</c></rc>
    <rc><c>C </c><c>   1</c></rc>
    <rc><c>C </c><c>   1</c></rc>
    <rc><c>C </c><c>   1</c></rc>
    <rc><c>C </c><c>   1</c></rc>
    <rc><c>C </c><c>   1</c></rc>
    <rc><c>C </c><c>   1</c></rc>
    <rc><c>C </c><c>   1</c></rc>
    <rc><c>C </c><c>   1</c></rc>
    <rc><c>C </c><c>   1</c></rc>
    <rc><c>C </c><c>   1</c></rc>
    <rc><c>C </c><c>   1</c></rc>
    <rc><c>C </c><c>   1</c></rc>
    <rc><c>C </c><c>   1</c></rc>
    <rc><c>C </c><c>   1</c></rc>
    <rc><c>C </c><c>   1</c></rc>
    <rc><c>C </c><c>   1</c></rc>
    <rc><c>C </c><c>   1</c></rc>
    <rc><c>C </c><c>   1</c></rc>
    <rc><c>C </c><c>   1</c></rc>
    <rc><c>C </c><c>   1</c></rc>
    <rc><c>C </c><c>   1</c></rc>
    <rc><c>C </c><c>   1</c></rc>
    <rc><c>C </c><c>   1</c></rc>
    <rc><c>C </c><c>   1</c></rc>
    <rc><c>C </c><c>   1</c></rc>
    <rc><c>C </c><c>   1</c></rc>
    <rc><c>C </c><c>   1</c></rc>
    <rc><c>C </c><c>   1</c></rc>
    <rc><c>C </c><c>   1</c></rc>
    <rc><c>C </c><c>   1</c></rc>
    <rc><c>C </c><c>   1</c></rc>
    <rc><c>C </c><c>   1</c></rc>
    <rc><c>C </c><c>   1</c></rc>
    <rc><c>C </c><c>   1</c></rc>
    <rc><c>C </c><c>   1</c></rc>
    <rc><c>C </c><c>   1</c></rc>
    <rc><c>C </c><c>   1</c></rc>
    <rc><c>C </c><c>   1</c></rc>
    <rc><c>C </c><c>   1</c></rc>
    <rc><c>C </c><c>   1</c></rc>
    <rc><c>C </c><c>   1</c></rc>
    <rc><c>C </c><c>   1</c></rc>
    <rc><c>C </c><c>   1</c></rc>
    <rc><c>C </c><c>   1</c></rc>
    <rc><c>C </c><c>   1</c></rc>
    <rc><c>C </c><c>   1</c></rc>
    <rc><c>C </c><c>   1</c></rc>
    <rc><c>C </c><c>   1</c></rc>
    <rc><c>C </c><c>   1</c></rc>
    <rc><c>C </c><c>   1</c></rc>
    <rc><c>C </c><c>   1</c></rc>
    <rc><c>C </c><c>   1</c></rc>
    <rc><c>C </c><c>   1</c></rc>
    <rc><c>C </c><c>   1</c></rc>
    <rc><c>C </c><c>   1</c></rc>
    <rc><c>C </c><c>   1</c></rc>
    <rc><c>C </c><c>   1</c></rc>
    <rc><c>C </c><c>   1</c></rc>
    <rc><c>C </c><c>   1</c></rc>
    <rc><c>C </c><c>   1</c></rc>
    <rc><c>C </c><c>   1</c></rc>
    <rc><c>C </c><c>   1</c></rc>
    <rc><c>C </c><c>   1</c></rc>
    <rc><c>C </c><c>   1</c></rc>
    <rc><c>C </c><c>   1</c></rc>
    <rc><c>C </c><c>   1</c></rc>
    <rc><c>C </c><c>   1</c></rc>
    <rc><c>C </c><c>   1</c></rc>
    <rc><c>C </c><c>   1</c></rc>
    <rc><c>C </c><c>   1</c></rc>
    <rc><c>C </c><c>   1</c></rc>
    <rc><c>C </c><c>   1</c></rc>
    <rc><c>C </c><c>   1</c></rc>
    <rc><c>C </c><c>   1</c></rc>
    <rc><c>C </c><c>   1</c></rc>
    <rc><c>C </c><c>   1</c></rc>
    <rc><c>C </c><c>   1</c></rc>
    <rc><c>C </c><c>   1</c></rc>
    <rc><c>C </c><c>   1</c></rc>
    <rc><c>C </c><c>   1</c></rc>
    <rc><c>Si</c><c>   2</c></rc>
    <rc><c>Si</c><c>   2</c></rc>
    <rc><c>Si</c><c>   2</c></rc>
    <rc><c>Si</c><c>   2</c></rc>
    <rc><c>Si</c><c>   2</c></rc>
    <rc><c>Si</c><c>   2</c></rc>
    <rc><c>Si</c><c>   2</c></rc>
    <rc><c>Si</c><c>   2</c></rc>
    <rc><c>Si</c><c>   2</c></rc>
    <rc><c>Si</c><c>   2</c></rc>
    <rc><c>Si</c><c>   2</c></rc>
    <rc><c>Si</c><c>   2</c></rc>
    <rc><c>Si</c><c>   2</c></rc>
    <rc><c>Si</c><c>   2</c></rc>
    <rc><c>Si</c><c>   2</c></rc>
    <rc><c>Si</c><c>   2</c></rc>
    <rc><c>Si</c><c>   2</c></rc>
    <rc><c>Si</c><c>   2</c></rc>
    <rc><c>Si</c><c>   2</c></rc>
    <rc><c>Si</c><c>   2</c></rc>
    <rc><c>Si</c><c>   2</c></rc>
    <rc><c>Si</c><c>   2</c></rc>
    <rc><c>Si</c><c>   2</c></rc>
    <rc><c>Si</c><c>   2</c></rc>
    <rc><c>Si</c><c>   2</c></rc>
    <rc><c>Si</c><c>   2</c></rc>
    <rc><c>Si</c><c>   2</c></rc>
    <rc><c>Si</c><c>   2</c></rc>
    <rc><c>Si</c><c>   2</c></rc>
    <rc><c>Si</c><c>   2</c></rc>
    <rc><c>Si</c><c>   2</c></rc>
    <rc><c>Si</c><c>   2</c></rc>
    <rc><c>Si</c><c>   2</c></rc>
    <rc><c>Si</c><c>   2</c></rc>
    <rc><c>Si</c><c>   2</c></rc>
    <rc><c>Si</c><c>   2</c></rc>
    <rc><c>Si</c><c>   2</c></rc>
    <rc><c>Si</c><c>   2</c></rc>
    <rc><c>Si</c><c>   2</c></rc>
    <rc><c>Si</c><c>   2</c></rc>
    <rc><c>Si</c><c>   2</c></rc>
    <rc><c>Si</c><c>   2</c></rc>
    <rc><c>Si</c><c>   2</c></rc>
    <rc><c>Si</c><c>   2</c></rc>
    <rc><c>Si</c><c>   2</c></rc>
    <rc><c>Si</c><c>   2</c></rc>
    <rc><c>Si</c><c>   2</c></rc>
    <rc><c>Si</c><c>   2</c></rc>
    <rc><c>Si</c><c>   2</c></rc>
    <rc><c>Si</c><c>   2</c></rc>
    <rc><c>Si</c><c>   2</c></rc>
    <rc><c>Si</c><c>   2</c></rc>
    <rc><c>Si</c><c>   2</c></rc>
    <rc><c>Si</c><c>   2</c></rc>
    <rc><c>Si</c><c>   2</c></rc>
    <rc><c>Si</c><c>   2</c></rc>
    <rc><c>Si</c><c>   2</c></rc>
    <rc><c>Si</c><c>   2</c></rc>
    <rc><c>Si</c><c>   2</c></rc>
    <rc><c>Si</c><c>   2</c></rc>
    <rc><c>Si</c><c>   2</c></rc>
    <rc><c>Si</c><c>   2</c></rc>
    <rc><c>Si</c><c>   2</c></rc>
    <rc><c>Si</c><c>   2</c></rc>
    <rc><c>Si</c><c>   2</c></rc>
    <rc><c>Si</c><c>   2</c></rc>
    <rc><c>Si</c><c>   2</c></rc>
    <rc><c>Si</c><c>   2</c></rc>
    <rc><c>Si</c><c>   2</c></rc>
    <rc><c>Si</c><c>   2</c></rc>
    <rc><c>Si</c><c>   2</c></rc>
    <rc><c>Si</c><c>   2</c></rc>
    <rc><c>Si</c><c>   2</c></rc>
    <rc><c>Si</c><c>   2</c></rc>
    <rc><c>Si</c><c>   2</c></rc>
    <rc><c>Si</c><c>   2</c></rc>
    <rc><c>Si</c><c>   2</c></rc>
    <rc><c>Si</c><c>   2</c></rc>
    <rc><c>Si</c><c>   2</c></rc>
    <rc><c>Si</c><c>   2</c></rc>
    <rc><c>Si</c><c>   2</c></rc>
    <rc><c>Si</c><c>   2</c></rc>
    <rc><c>Si</c><c>   2</c></rc>
    <rc><c>Si</c><c>   2</c></rc>
    <rc><c>Si</c><c>   2</c></rc>
    <rc><c>Si</c><c>   2</c></rc>
    <rc><c>Si</c><c>   2</c></rc>
    <rc><c>Si</c><c>   2</c></rc>
    <rc><c>Si</c><c>   2</c></rc>
    <rc><c>Si</c><c>   2</c></rc>
    <rc><c>Si</c><c>   2</c></rc>
    <rc><c>Si</c><c>   2</c></rc>
    <rc><c>Si</c><c>   2</c></rc>
    <rc><c>Si</c><c>   2</c></rc>
    <rc><c>Si</c><c>   2</c></rc>
    <rc><c>Si</c><c>   2</c></rc>
    <rc><c>Si</c><c>   2</c></rc>
    <rc><c>Si</c><c>   2</c></rc>
    <rc><c>Si</c><c>   2</c></rc>
    <rc><c>Si</c><c>   2</c></rc>
    <rc><c>Si</c><c>   2</c></rc>
    <rc><c>Si</c><c>   2</c></rc>
    <rc><c>Si</c><c>   2</c></rc>
    <rc><c>Si</c><c>   2</c></rc>
    <rc><c>Si</c><c>   2</c></rc>
    <rc><c>Si</c><c>   2</c></rc>
    <rc><c>Si</c><c>   2</c></rc>
    <rc><c>Si</c><c>   2</c></rc>
   </set>
  </array>
  <array name="atomtypes" >
   <dimension dim="1">type</dimension>
   <field type="int">atomspertype</field>
   <field type="string">element</field>
   <field>mass</field>
   <field>valence</field>
   <field type="string">pseudopotential</field>
   <set>
    <rc><c> 108</c><c>C </c><c>     12.01100000</c><c>      4.00000000</c><c>  PAW_PBE C 08Apr2002                   </c></rc>
    <rc><c> 108</c><c>Si</c><c>     28.08500000</c><c>      4.00000000</c><c>  PAW_PBE Si 05Jan2001                  </c></rc>
   </set>
  </array>
 </atominfo>
 <structure name="initialpos" >
  <crystal>
   <varray name="basis" >
    <v>      13.08000000       0.00000000       0.00000000 </v>
    <v>       0.00000000      13.08000000       0.00000000 </v>
    <v>       0.00000000       0.00000000      13.08000000 </v>
   </varray>
   <i name="volume">   2237.81011200 </i>
   <varray name="rec_basis" >
    <v>       0.07645260       0.00000000       0.00000000 </v>
    <v>       0.00000000       0.07645260       0.00000000 </v>
    <v>       0.00000000       0.00000000       0.07645260 </v>
   </varray>
  </crystal>
  <varray name="positions" >
   <v>       0.00000000       0.00000000       0.00000000 </v>
   <v>       0.16666700       0.16666700       0.00000000 </v>
   <v>       0.16666700       0.00000000       0.16666700 </v>
   <v>       0.00000000       0.16666700       0.16666700 </v>
   <v>       0.33333300       0.00000000       0.00000000 </v>
   <v>       0.66666700       0.00000000       0.00000000 </v>
   <v>       0.50000000       0.16666700       0.00000000 </v>
   <v>       0.83333300       0.16666700       0.00000000 </v>
   <v>       0.50000000       0.00000000       0.16666700 </v>
   <v>       0.83333300       0.00000000       0.16666700 </v>
   <v>       0.33333300       0.16666700       0.16666700 </v>
   <v>       0.66666700       0.16666700       0.16666700 </v>
   <v>       0.00000000       0.33333300       0.00000000 </v>
   <v>       0.00000000       0.66666700       0.00000000 </v>
   <v>       0.16666700       0.50000000       0.00000000 </v>
   <v>       0.16666700       0.83333300       0.00000000 </v>
   <v>       0.16666700       0.33333300       0.16666700 </v>
   <v>       0.16666700       0.66666700       0.16666700 </v>
   <v>       0.00000000       0.50000000       0.16666700 </v>
   <v>       0.00000000       0.83333300       0.16666700 </v>
   <v>       0.33333300       0.33333300       0.00000000 </v>
   <v>       0.33333300       0.66666700       0.00000000 </v>
   <v>       0.66666700       0.33333300       0.00000000 </v>
   <v>       0.66666700       0.66666700       0.00000000 </v>
   <v>       0.50000000       0.50000000       0.00000000 </v>
   <v>       0.50000000       0.83333300       0.00000000 </v>
   <v>       0.83333300       0.50000000       0.00000000 </v>
   <v>       0.83333300       0.83333300       0.00000000 </v>
   <v>       0.50000000       0.33333300       0.16666700 </v>
   <v>       0.50000000       0.66666700       0.16666700 </v>
   <v>       0.83333300       0.33333300       0.16666700 </v>
   <v>       0.83333300       0.66666700       0.16666700 </v>
   <v>       0.33333300       0.50000000       0.16666700 </v>
   <v>       0.33333300       0.83333300       0.16666700 </v>
   <v>       0.66666700       0.50000000       0.16666700 </v>
   <v>       0.66666700       0.83333300       0.16666700 </v>
   <v>       0.00000000       0.00000000       0.33333300 </v>
   <v>       0.00000000       0.00000000       0.66666700 </v>
   <v>       0.16666700       0.16666700       0.33333300 </v>
   <v>       0.16666700       0.16666700       0.66666700 </v>
   <v>       0.16666700       0.00000000       0.50000000 </v>
   <v>       0.16666700       0.00000000       0.83333300 </v>
   <v>       0.00000000       0.16666700       0.50000000 </v>
   <v>       0.00000000       0.16666700       0.83333300 </v>
   <v>       0.33333300       0.00000000       0.33333300 </v>
   <v>       0.33333300       0.00000000       0.66666700 </v>
   <v>       0.66666700       0.00000000       0.33333300 </v>
   <v>       0.66666700       0.00000000       0.66666700 </v>
   <v>       0.50000000       0.16666700       0.33333300 </v>
   <v>       0.50000000       0.16666700       0.66666700 </v>
   <v>       0.83333300       0.16666700       0.33333300 </v>
   <v>       0.83333300       0.16666700       0.66666700 </v>
   <v>       0.50000000       0.00000000       0.50000000 </v>
   <v>       0.50000000       0.00000000       0.83333300 </v>
   <v>       0.83333300       0.00000000       0.50000000 </v>
   <v>       0.83333300       0.00000000       0.83333300 </v>
   <v>       0.33333300       0.16666700       0.50000000 </v>
   <v>       0.33333300       0.16666700       0.83333300 </v>
   <v>       0.66666700       0.16666700       0.50000000 </v>
   <v>       0.66666700       0.16666700       0.83333300 </v>
   <v>       0.00000000       0.33333300       0.33333300 </v>
   <v>       0.00000000       0.33333300       0.66666700 </v>
   <v>       0.00000000       0.66666700       0.33333300 </v>
   <v>       0.00000000       0.66666700       0.66666700 </v>
   <v>       0.16666700       0.50000000       0.33333300 </v>
   <v>       0.16666700       0.50000000       0.66666700 </v>
   <v>       0.16666700       0.83333300       0.33333300 </v>
   <v>       0.16666700       0.83333300       0.66666700 </v>
   <v>       0.16666700       0.33333300       0.50000000 </v>
   <v>       0.16666700       0.33333300       0.83333300 </v>
   <v>       0.16666700       0.66666700       0.50000000 </v>
   <v>       0.16666700       0.66666700       0.83333300 </v>
   <v>       0.00000000       0.50000000       0.50000000 </v>
   <v>       0.00000000       0.50000000       0.83333300 </v>
   <v>       0.00000000       0.83333300       0.50000000 </v>
   <v>       0.00000000       0.83333300       0.83333300 </v>
   <v>       0.33333300       0.33333300       0.33333300 </v>
   <v>       0.33333300       0.33333300       0.66666700 </v>
   <v>       0.33333300       0.66666700       0.33333300 </v>
   <v>       0.33333300       0.66666700       0.66666700 </v>
   <v>       0.66666700       0.33333300       0.33333300 </v>
   <v>       0.66666700       0.33333300       0.66666700 </v>
   <v>       0.66666700       0.66666700       0.33333300 </v>
   <v>       0.66666700       0.66666700       0.66666700 </v>
   <v>       0.50000000       0.50000000       0.33333300 </v>
   <v>       0.50000000       0.50000000       0.66666700 </v>
   <v>       0.50000000       0.83333300       0.33333300 </v>
   <v>       0.50000000       0.83333300       0.66666700 </v>
   <v>       0.83333300       0.50000000       0.33333300 </v>
   <v>       0.83333300       0.50000000       0.66666700 </v>
   <v>       0.83333300       0.83333300       0.33333300 </v>
   <v>       0.83333300       0.83333300       0.66666700 </v>
   <v>       0.50000000       0.33333300       0.50000000 </v>
   <v>       0.50000000       0.33333300       0.83333300 </v>
   <v>       0.50000000       0.66666700       0.50000000 </v>
   <v>       0.50000000       0.66666700       0.83333300 </v>
   <v>       0.83333300       0.33333300       0.50000000 </v>
   <v>       0.83333300       0.33333300       0.83333300 </v>
   <v>       0.83333300       0.66666700       0.50000000 </v>
   <v>       0.83333300       0.66666700       0.83333300 </v>
   <v>       0.33333300       0.50000000       0.50000000 </v>
   <v>       0.33333300       0.50000000       0.83333300 </v>
   <v>       0.33333300       0.83333300       0.50000000 </v>
   <v>       0.33333300       0.83333300       0.83333300 </v>
   <v>       0.66666700       0.50000000       0.50000000 </v>
   <v>       0.66666700       0.50000000       0.83333300 </v>
   <v>       0.66666700       0.83333300       0.50000000 </v>
   <v>       0.66666700       0.83333300       0.83333300 </v>
   <v>       0.08333300       0.08333300       0.08333300 </v>
   <v>       0.25000000       0.25000000       0.08333300 </v>
   <v>       0.08333300       0.25000000       0.25000000 </v>
   <v>       0.25000000       0.08333300       0.25000000 </v>
   <v>       0.41666700       0.08333300       0.08333300 </v>
   <v>       0.75000000       0.08333300       0.08333300 </v>
   <v>       0.58333300       0.25000000       0.08333300 </v>
   <v>       0.91666700       0.25000000       0.08333300 </v>
   <v>       0.41666700       0.25000000       0.25000000 </v>
   <v>       0.75000000       0.25000000       0.25000000 </v>
   <v>       0.58333300       0.08333300       0.25000000 </v>
   <v>       0.91666700       0.08333300       0.25000000 </v>
   <v>       0.08333300       0.41666700       0.08333300 </v>
   <v>       0.08333300       0.75000000       0.08333300 </v>
   <v>       0.25000000       0.58333300       0.08333300 </v>
   <v>       0.25000000       0.91666700       0.08333300 </v>
   <v>       0.08333300       0.58333300       0.25000000 </v>
   <v>       0.08333300       0.91666700       0.25000000 </v>
   <v>       0.25000000       0.41666700       0.25000000 </v>
   <v>       0.25000000       0.75000000       0.25000000 </v>
   <v>       0.41666700       0.41666700       0.08333300 </v>
   <v>       0.41666700       0.75000000       0.08333300 </v>
   <v>       0.75000000       0.41666700       0.08333300 </v>
   <v>       0.75000000       0.75000000       0.08333300 </v>
   <v>       0.58333300       0.58333300       0.08333300 </v>
   <v>       0.58333300       0.91666700       0.08333300 </v>
   <v>       0.91666700       0.58333300       0.08333300 </v>
   <v>       0.91666700       0.91666700       0.08333300 </v>
   <v>       0.41666700       0.58333300       0.25000000 </v>
   <v>       0.41666700       0.91666700       0.25000000 </v>
   <v>       0.75000000       0.58333300       0.25000000 </v>
   <v>       0.75000000       0.91666700       0.25000000 </v>
   <v>       0.58333300       0.41666700       0.25000000 </v>
   <v>       0.58333300       0.75000000       0.25000000 </v>
   <v>       0.91666700       0.41666700       0.25000000 </v>
   <v>       0.91666700       0.75000000       0.25000000 </v>
   <v>       0.08333300       0.08333300       0.41666700 </v>
   <v>       0.08333300       0.08333300       0.75000000 </v>
   <v>       0.25000000       0.25000000       0.41666700 </v>
   <v>       0.25000000       0.25000000       0.75000000 </v>
   <v>       0.08333300       0.25000000       0.58333300 </v>
   <v>       0.08333300       0.25000000       0.91666700 </v>
   <v>       0.25000000       0.08333300       0.58333300 </v>
   <v>       0.25000000       0.08333300       0.91666700 </v>
   <v>       0.41666700       0.08333300       0.41666700 </v>
   <v>       0.41666700       0.08333300       0.75000000 </v>
   <v>       0.75000000       0.08333300       0.41666700 </v>
   <v>       0.75000000       0.08333300       0.75000000 </v>
   <v>       0.58333300       0.25000000       0.41666700 </v>
   <v>       0.58333300       0.25000000       0.75000000 </v>
   <v>       0.91666700       0.25000000       0.41666700 </v>
   <v>       0.91666700       0.25000000       0.75000000 </v>
   <v>       0.41666700       0.25000000       0.58333300 </v>
   <v>       0.41666700       0.25000000       0.91666700 </v>
   <v>       0.75000000       0.25000000       0.58333300 </v>
   <v>       0.75000000       0.25000000       0.91666700 </v>
   <v>       0.58333300       0.08333300       0.58333300 </v>
   <v>       0.58333300       0.08333300       0.91666700 </v>
   <v>       0.91666700       0.08333300       0.58333300 </v>
   <v>       0.91666700       0.08333300       0.91666700 </v>
   <v>       0.08333300       0.41666700       0.41666700 </v>
   <v>       0.08333300       0.41666700       0.75000000 </v>
   <v>       0.08333300       0.75000000       0.41666700 </v>
   <v>       0.08333300       0.75000000       0.75000000 </v>
   <v>       0.25000000       0.58333300       0.41666700 </v>
   <v>       0.25000000       0.58333300       0.75000000 </v>
   <v>       0.25000000       0.91666700       0.41666700 </v>
   <v>       0.25000000       0.91666700       0.75000000 </v>
   <v>       0.08333300       0.58333300       0.58333300 </v>
   <v>       0.08333300       0.58333300       0.91666700 </v>
   <v>       0.08333300       0.91666700       0.58333300 </v>
   <v>       0.08333300       0.91666700       0.91666700 </v>
   <v>       0.25000000       0.41666700       0.58333300 </v>
   <v>       0.25000000       0.41666700       0.91666700 </v>
   <v>       0.25000000       0.75000000       0.58333300 </v>
   <v>       0.25000000       0.75000000       0.91666700 </v>
   <v>       0.41666700       0.41666700       0.41666700 </v>
   <v>       0.41666700       0.41666700       0.75000000 </v>
   <v>       0.41666700       0.75000000       0.41666700 </v>
   <v>       0.41666700       0.75000000       0.75000000 </v>
   <v>       0.75000000       0.41666700       0.41666700 </v>
   <v>       0.75000000       0.41666700       0.75000000 </v>
   <v>       0.75000000       0.75000000       0.41666700 </v>
   <v>       0.75000000       0.75000000       0.75000000 </v>
   <v>       0.58333300       0.58333300       0.41666700 </v>
   <v>       0.58333300       0.58333300       0.75000000 </v>
   <v>       0.58333300       0.91666700       0.41666700 </v>
   <v>       0.58333300       0.91666700       0.75000000 </v>
   <v>       0.91666700       0.58333300       0.41666700 </v>
   <v>       0.91666700       0.58333300       0.75000000 </v>
   <v>       0.91666700       0.91666700       0.41666700 </v>
   <v>       0.91666700       0.91666700       0.75000000 </v>
   <v>       0.41666700       0.58333300       0.58333300 </v>
   <v>       0.41666700       0.58333300       0.91666700 </v>
   <v>       0.41666700       0.91666700       0.58333300 </v>
   <v>       0.41666700       0.91666700       0.91666700 </v>
   <v>       0.75000000       0.58333300       0.58333300 </v>
   <v>       0.75000000       0.58333300       0.91666700 </v>
   <v>       0.75000000       0.91666700       0.58333300 </v>
   <v>       0.75000000       0.91666700       0.91666700 </v>
   <v>       0.58333300       0.41666700       0.58333300 </v>
   <v>       0.58333300       0.41666700       0.91666700 </v>
   <v>       0.58333300       0.75000000       0.58333300 </v>
   <v>       0.58333300       0.75000000       0.91666700 </v>
   <v>       0.91666700       0.41666700       0.58333300 </v>
   <v>       0.91666700       0.41666700       0.91666700 </v>
   <v>       0.91666700       0.75000000       0.58333300 </v>
   <v>       0.91666700       0.75000000       0.91666700 </v>
  </varray>
 </structure>
 <calculation>
  <scstep>
   <time name="dav">   64.05   64.03</time>
   <time name="total">   65.31   65.30</time>
   <energy>
    <i name="alphaZ">   1207.25708212 </i>
    <i name="ewald"> -30742.85384385 </i>
    <i name="hartreedc">  -2246.24399747 </i>
    <i name="XCdc">    496.54467123 </i>
    <i name="pawpsdc">  21237.75136745 </i>
    <i name="pawaedc"> -19399.17275770 </i>
    <i name="eentropy">     -0.03979657 </i>
    <i name="bandstr">   4840.28274623 </i>
    <i name="atom">  27020.84077079 </i>
    <i name="e_fr_energy">   2414.36624223 </i>
    <i name="e_wo_entrp">   2414.40603881 </i>
    <i name="e_0_energy">   2414.38614052 </i>
   </energy>
  </scstep>
  <scstep>
   <time name="dav">   75.49   75.45</time>
   <time name="total">   75.50   75.47</time>
   <energy>
    <i name="e_fr_energy">  -1534.98347555 </i>
    <i name="e_wo_entrp">  -1534.98347555 </i>
    <i name="e_0_energy">  -1534.98347555 </i>
   </energy>
  </scstep>
  <scstep>
   <time name="dav">   73.81   73.75</time>
   <time name="total">   73.82   73.78</time>
   <energy>
    <i name="e_fr_energy">  -1817.29303906 </i>
    <i name="e_wo_entrp">  -1817.29303906 </i>
    <i name="e_0_energy">  -1817.29303906 </i>
   </energy>
  </scstep>
  <scstep>
   <time name="dav">   73.79   73.74</time>
   <time name="total">   73.80   73.76</time>
   <energy>
    <i name="e_fr_energy">  -1824.53447548 </i>
    <i name="e_wo_entrp">  -1824.53447548 </i>
    <i name="e_0_energy">  -1824.53447548 </i>
   </energy>
  </scstep>
  <scstep>
   <time name="dav">   70.98   70.93</time>
   <time name="total">   73.30   73.27</time>
   <energy>
    <i name="e_fr_energy">  -1824.72029312 </i>
    <i name="e_wo_entrp">  -1824.72029312 </i>
    <i name="e_0_energy">  -1824.72029312 </i>
   </energy>
  </scstep>
  <scstep>
   <time name="diag">    8.79    8.78</time>
   <time name="diis">   21.50   21.48</time>
   <time name="orth">    3.65    3.65</time>
   <time name="total">   37.33   37.33</time>
   <energy>
    <i name="e_fr_energy">  -1631.53809323 </i>
    <i name="e_wo_entrp">  -1631.53809323 </i>
    <i name="e_0_energy">  -1631.53809323 </i>
   </energy>
  </scstep>
  <scstep>
   <time name="diag">    8.75    8.74</time>
   <time name="diis">   21.51   21.49</time>
   <time name="orth">    3.66    3.66</time>
   <time name="total">   37.36   37.35</time>
   <energy>
    <i name="e_fr_energy">  -1626.87088042 </i>
    <i name="e_wo_entrp">  -1626.87088042 </i>
    <i name="e_0_energy">  -1626.87088042 </i>
   </energy>
  </scstep>
  <scstep>
   <time name="diag">    8.77    8.76</time>
   <time name="diis">   21.46   21.45</time>
   <time name="orth">    3.67    3.67</time>
   <time name="total">   37.31   37.30</time>
   <energy>
    <i name="e_fr_energy">  -1625.66052815 </i>
    <i name="e_wo_entrp">  -1625.66052815 </i>
    <i name="e_0_energy">  -1625.66052815 </i>
   </energy>
  </scstep>
  <scstep>
   <time name="diag">    8.78    8.77</time>
   <time name="diis">   21.59   21.58</time>
   <time name="orth">    3.66    3.65</time>
   <time name="total">   37.42   37.40</time>
   <energy>
    <i name="e_fr_energy">  -1625.61750427 </i>
    <i name="e_wo_entrp">  -1625.61750427 </i>
    <i name="e_0_energy">  -1625.61750427 </i>
   </energy>
  </scstep>
  <scstep>
   <time name="diag">    8.74    8.73</time>
   <time name="diis">   21.47   21.45</time>
   <time name="orth">    3.66    3.66</time>
   <time name="total">   37.31   37.30</time>
   <energy>
    <i name="e_fr_energy">  -1625.63727248 </i>
    <i name="e_wo_entrp">  -1625.63727248 </i>
    <i name="e_0_energy">  -1625.63727248 </i>
   </energy>
  </scstep>
  <scstep>
   <time name="diag">    8.64    8.63</time>
   <time name="diis">   21.44   21.42</time>
   <time name="orth">    3.67    3.66</time>
   <time name="total">   37.08   37.06</time>
   <energy>
    <i name="e_fr_energy">  -1625.62812971 </i>
    <i name="e_wo_entrp">  -1625.62812971 </i>
    <i name="e_0_energy">  -1625.62812971 </i>
   </energy>
  </scstep>
  <scstep>
   <time name="diag">    8.64    8.63</time>
   <time name="diis">   21.66   21.64</time>
   <time name="orth">    3.64    3.64</time>
   <time name="total">   37.27   37.25</time>
   <energy>
    <i name="e_fr_energy">  -1625.62820801 </i>
    <i name="e_wo_entrp">  -1625.62820801 </i>
    <i name="e_0_energy">  -1625.62820801 </i>
   </energy>
  </scstep>
  <scstep>
   <time name="diag">    8.65    8.64</time>
   <time name="diis">   21.57   21.56</time>
   <time name="orth">    3.65    3.65</time>
   <time name="total">   37.23   37.25</time>
   <energy>
    <i name="e_fr_energy">  -1625.62829906 </i>
    <i name="e_wo_entrp">  -1625.62829906 </i>
    <i name="e_0_energy">  -1625.62829906 </i>
   </energy>
  </scstep>
  <scstep>
   <time name="diag">    8.60    8.59</time>
   <time name="diis">   21.46   21.45</time>
   <time name="orth">    3.66    3.66</time>
   <time name="total">   37.09   37.07</time>
   <energy>
    <i name="e_fr_energy">  -1625.62823530 </i>
    <i name="e_wo_entrp">  -1625.62823530 </i>
    <i name="e_0_energy">  -1625.62823530 </i>
   </energy>
  </scstep>
  <scstep>
   <time name="diag">    8.62    8.66</time>
   <time name="diis">   21.48   21.47</time>
   <time name="orth">    3.66    3.66</time>
   <time name="total">   37.10   37.14</time>
   <energy>
    <i name="e_fr_energy">  -1625.62823021 </i>
    <i name="e_wo_entrp">  -1625.62823021 </i>
    <i name="e_0_energy">  -1625.62823021 </i>
   </energy>
  </scstep>
  <scstep>
   <time name="diag">    9.00    8.99</time>
   <time name="diis">   13.36   13.35</time>
   <time name="orth">    3.63    3.63</time>
   <time name="total">   27.22   27.21</time>
   <energy>
    <i name="alphaZ">   1207.25708212 </i>
    <i name="ewald"> -30742.85384385 </i>
    <i name="hartreedc">  -3448.47624358 </i>
    <i name="XCdc">    610.71131102 </i>
    <i name="pawpsdc"> 113344.69420986 </i>
    <i name="pawaedc">-111525.93210495 </i>
    <i name="eentropy">     -0.00000000 </i>
    <i name="bandstr">   1908.13058737 </i>
    <i name="atom">  27020.84077079 </i>
    <i name="e_fr_energy">  -1625.62823120 </i>
    <i name="e_wo_entrp">  -1625.62823120 </i>
    <i name="e_0_energy">  -1625.62823120 </i>
   </energy>
  </scstep>
  <structure>
   <crystal>
    <varray name="basis" >
     <v>      13.08000000       0.00000000       0.00000000 </v>
     <v>       0.00000000      13.08000000       0.00000000 </v>
     <v>       0.00000000       0.00000000      13.08000000 </v>
    </varray>
    <i name="volume">   2237.81011200 </i>
    <varray name="rec_basis" >
     <v>       0.07645260       0.00000000       0.00000000 </v>
     <v>       0.00000000       0.07645260       0.00000000 </v>
     <v>       0.00000000       0.00000000       0.07645260 </v>
    </varray>
   </crystal>
   <varray name="positions" >
    <v>       0.00000000       0.00000000       0.00000000 </v>
    <v>       0.16666700       0.16666700       0.00000000 </v>
    <v>       0.16666700       0.00000000       0.16666700 </v>
    <v>       0.00000000       0.16666700       0.16666700 </v>
    <v>       0.33333300       0.00000000       0.00000000 </v>
    <v>       0.66666700       0.00000000       0.00000000 </v>
    <v>       0.50000000       0.16666700       0.00000000 </v>
    <v>       0.83333300       0.16666700       0.00000000 </v>
    <v>       0.50000000       0.00000000       0.16666700 </v>
    <v>       0.83333300       0.00000000       0.16666700 </v>
    <v>       0.33333300       0.16666700       0.16666700 </v>
    <v>       0.66666700       0.16666700       0.16666700 </v>
    <v>       0.00000000       0.33333300       0.00000000 </v>
    <v>       0.00000000       0.66666700       0.00000000 </v>
    <v>       0.16666700       0.50000000       0.00000000 </v>
    <v>       0.16666700       0.83333300       0.00000000 </v>
    <v>       0.16666700       0.33333300       0.16666700 </v>
    <v>       0.16666700       0.66666700       0.16666700 </v>
    <v>       0.00000000       0.50000000       0.16666700 </v>
    <v>       0.00000000       0.83333300       0.16666700 </v>
    <v>       0.33333300       0.33333300       0.00000000 </v>
    <v>       0.33333300       0.66666700       0.00000000 </v>
    <v>       0.66666700       0.33333300       0.00000000 </v>
    <v>       0.66666700       0.66666700       0.00000000 </v>
    <v>       0.50000000       0.50000000       0.00000000 </v>
    <v>       0.50000000       0.83333300       0.00000000 </v>
    <v>       0.83333300       0.50000000       0.00000000 </v>
    <v>       0.83333300       0.83333300       0.00000000 </v>
    <v>       0.50000000       0.33333300       0.16666700 </v>
    <v>       0.50000000       0.66666700       0.16666700 </v>
    <v>       0.83333300       0.33333300       0.16666700 </v>
    <v>       0.83333300       0.66666700       0.16666700 </v>
    <v>       0.33333300       0.50000000       0.16666700 </v>
    <v>       0.33333300       0.83333300       0.16666700 </v>
    <v>       0.66666700       0.50000000       0.16666700 </v>
    <v>       0.66666700       0.83333300       0.16666700 </v>
    <v>       0.00000000       0.00000000       0.33333300 </v>
    <v>       0.00000000       0.00000000       0.66666700 </v>
    <v>       0.16666700       0.16666700       0.33333300 </v>
    <v>       0.16666700       0.16666700       0.66666700 </v>
    <v>       0.16666700       0.00000000       0.50000000 </v>
    <v>       0.16666700       0.00000000       0.83333300 </v>
    <v>       0.00000000       0.16666700       0.50000000 </v>
    <v>       0.00000000       0.16666700       0.83333300 </v>
    <v>       0.33333300       0.00000000       0.33333300 </v>
    <v>       0.33333300       0.00000000       0.66666700 </v>
    <v>       0.66666700       0.00000000       0.33333300 </v>
    <v>       0.66666700       0.00000000       0.66666700 </v>
    <v>       0.50000000       0.16666700       0.33333300 </v>
    <v>       0.50000000       0.16666700       0.66666700 </v>
    <v>       0.83333300       0.16666700       0.33333300 </v>
    <v>       0.83333300       0.16666700       0.66666700 </v>
    <v>       0.50000000       0.00000000       0.50000000 </v>
    <v>       0.50000000       0.00000000       0.83333300 </v>
    <v>       0.83333300       0.00000000       0.50000000 </v>
    <v>       0.83333300       0.00000000       0.83333300 </v>
    <v>       0.33333300       0.16666700       0.50000000 </v>
    <v>       0.33333300       0.16666700       0.83333300 </v>
    <v>       0.66666700       0.16666700       0.50000000 </v>
    <v>       0.66666700       0.16666700       0.83333300 </v>
    <v>       0.00000000       0.33333300       0.33333300 </v>
    <v>       0.00000000       0.33333300       0.66666700 </v>
    <v>       0.00000000       0.66666700       0.33333300 </v>
    <v>       0.00000000       0.66666700       0.66666700 </v>
    <v>       0.16666700       0.50000000       0.33333300 </v>
    <v>       0.16666700       0.50000000       0.66666700 </v>
    <v>       0.16666700       0.83333300       0.33333300 </v>
    <v>       0.16666700       0.83333300       0.66666700 </v>
    <v>       0.16666700       0.33333300       0.50000000 </v>
    <v>       0.16666700       0.33333300       0.83333300 </v>
    <v>       0.16666700       0.66666700       0.50000000 </v>
    <v>       0.16666700       0.66666700       0.83333300 </v>
    <v>       0.00000000       0.50000000       0.50000000 </v>
    <v>       0.00000000       0.50000000       0.83333300 </v>
    <v>       0.00000000       0.83333300       0.50000000 </v>
    <v>       0.00000000       0.83333300       0.83333300 </v>
    <v>       0.33333300       0.33333300       0.33333300 </v>
    <v>       0.33333300       0.33333300       0.66666700 </v>
    <v>       0.33333300       0.66666700       0.33333300 </v>
    <v>       0.33333300       0.66666700       0.66666700 </v>
    <v>       0.66666700       0.33333300       0.33333300 </v>
    <v>       0.66666700       0.33333300       0.66666700 </v>
    <v>       0.66666700       0.66666700       0.33333300 </v>
    <v>       0.66666700       0.66666700       0.66666700 </v>
    <v>       0.50000000       0.50000000       0.33333300 </v>
    <v>       0.50000000       0.50000000       0.66666700 </v>
    <v>       0.50000000       0.83333300       0.33333300 </v>
    <v>       0.50000000       0.83333300       0.66666700 </v>
    <v>       0.83333300       0.50000000       0.33333300 </v>
    <v>       0.83333300       0.50000000       0.66666700 </v>
    <v>       0.83333300       0.83333300       0.33333300 </v>
    <v>       0.83333300       0.83333300       0.66666700 </v>
    <v>       0.50000000       0.33333300       0.50000000 </v>
    <v>       0.50000000       0.33333300       0.83333300 </v>
    <v>       0.50000000       0.66666700       0.50000000 </v>
    <v>       0.50000000       0.66666700       0.83333300 </v>
    <v>       0.83333300       0.33333300       0.50000000 </v>
    <v>       0.83333300       0.33333300       0.83333300 </v>
    <v>       0.83333300       0.66666700       0.50000000 </v>
    <v>       0.83333300       0.66666700       0.83333300 </v>
    <v>       0.33333300       0.50000000       0.50000000 </v>
    <v>       0.33333300       0.50000000       0.83333300 </v>
    <v>       0.33333300       0.83333300       0.50000000 </v>
    <v>       0.33333300       0.83333300       0.83333300 </v>
    <v>       0.66666700       0.50000000       0.50000000 </v>
    <v>       0.66666700       0.50000000       0.83333300 </v>
    <v>       0.66666700       0.83333300       0.50000000 </v>
    <v>       0.66666700       0.83333300       0.83333300 </v>
    <v>       0.08333300       0.08333300       0.08333300 </v>
    <v>       0.25000000       0.25000000       0.08333300 </v>
    <v>       0.08333300       0.25000000       0.25000000 </v>
    <v>       0.25000000       0.08333300       0.25000000 </v>
    <v>       0.41666700       0.08333300       0.08333300 </v>
    <v>       0.75000000       0.08333300       0.08333300 </v>
    <v>       0.58333300       0.25000000       0.08333300 </v>
    <v>       0.91666700       0.25000000       0.08333300 </v>
    <v>       0.41666700       0.25000000       0.25000000 </v>
    <v>       0.75000000       0.25000000       0.25000000 </v>
    <v>       0.58333300       0.08333300       0.25000000 </v>
    <v>       0.91666700       0.08333300       0.25000000 </v>
    <v>       0.08333300       0.41666700       0.08333300 </v>
    <v>       0.08333300       0.75000000       0.08333300 </v>
    <v>       0.25000000       0.58333300       0.08333300 </v>
    <v>       0.25000000       0.91666700       0.08333300 </v>
    <v>       0.08333300       0.58333300       0.25000000 </v>
    <v>       0.08333300       0.91666700       0.25000000 </v>
    <v>       0.25000000       0.41666700       0.25000000 </v>
    <v>       0.25000000       0.75000000       0.25000000 </v>
    <v>       0.41666700       0.41666700       0.08333300 </v>
    <v>       0.41666700       0.75000000       0.08333300 </v>
    <v>       0.75000000       0.41666700       0.08333300 </v>
    <v>       0.75000000       0.75000000       0.08333300 </v>
    <v>       0.58333300       0.58333300       0.08333300 </v>
    <v>       0.58333300       0.91666700       0.08333300 </v>
    <v>       0.91666700       0.58333300       0.08333300 </v>
    <v>       0.91666700       0.91666700       0.08333300 </v>
    <v>       0.41666700       0.58333300       0.25000000 </v>
    <v>       0.41666700       0.91666700       0.25000000 </v>
    <v>       0.75000000       0.58333300       0.25000000 </v>
    <v>       0.75000000       0.91666700       0.25000000 </v>
    <v>       0.58333300       0.41666700       0.25000000 </v>
    <v>       0.58333300       0.75000000       0.25000000 </v>
    <v>       0.91666700       0.41666700       0.25000000 </v>
    <v>       0.91666700       0.75000000       0.25000000 </v>
    <v>       0.08333300       0.08333300       0.41666700 </v>
    <v>       0.08333300       0.08333300       0.75000000 </v>
    <v>       0.25000000       0.25000000       0.41666700 </v>
    <v>       0.25000000       0.25000000       0.75000000 </v>
    <v>       0.08333300       0.25000000       0.58333300 </v>
    <v>       0.08333300       0.25000000       0.91666700 </v>
    <v>       0.25000000       0.08333300       0.58333300 </v>
    <v>       0.25000000       0.08333300       0.91666700 </v>
    <v>       0.41666700       0.08333300       0.41666700 </v>
    <v>       0.41666700       0.08333300       0.75000000 </v>
    <v>       0.75000000       0.08333300       0.41666700 </v>
    <v>       0.75000000       0.08333300       0.75000000 </v>
    <v>       0.58333300       0.25000000       0.41666700 </v>
    <v>       0.58333300       0.25000000       0.75000000 </v>
    <v>       0.91666700       0.25000000       0.41666700 </v>
    <v>       0.91666700       0.25000000       0.75000000 </v>
    <v>       0.41666700       0.25000000       0.58333300 </v>
    <v>       0.41666700       0.25000000       0.91666700 </v>
    <v>       0.75000000       0.25000000       0.58333300 </v>
    <v>       0.75000000       0.25000000       0.91666700 </v>
    <v>       0.58333300       0.08333300       0.58333300 </v>
    <v>       0.58333300       0.08333300       0.91666700 </v>
    <v>       0.91666700       0.08333300       0.58333300 </v>
    <v>       0.91666700       0.08333300       0.91666700 </v>
    <v>       0.08333300       0.41666700       0.41666700 </v>
    <v>       0.08333300       0.41666700       0.75000000 </v>
    <v>       0.08333300       0.75000000       0.41666700 </v>
    <v>       0.08333300       0.75000000       0.75000000 </v>
    <v>       0.25000000       0.58333300       0.41666700 </v>
    <v>       0.25000000       0.58333300       0.75000000 </v>
    <v>       0.25000000       0.91666700       0.41666700 </v>
    <v>       0.25000000       0.91666700       0.75000000 </v>
    <v>       0.08333300       0.58333300       0.58333300 </v>
    <v>       0.08333300       0.58333300       0.91666700 </v>
    <v>       0.08333300       0.91666700       0.58333300 </v>
    <v>       0.08333300       0.91666700       0.91666700 </v>
    <v>       0.25000000       0.41666700       0.58333300 </v>
    <v>       0.25000000       0.41666700       0.91666700 </v>
    <v>       0.25000000       0.75000000       0.58333300 </v>
    <v>       0.25000000       0.75000000       0.91666700 </v>
    <v>       0.41666700       0.41666700       0.41666700 </v>
    <v>       0.41666700       0.41666700       0.75000000 </v>
    <v>       0.41666700       0.75000000       0.41666700 </v>
    <v>       0.41666700       0.75000000       0.75000000 </v>
    <v>       0.75000000       0.41666700       0.41666700 </v>
    <v>       0.75000000       0.41666700       0.75000000 </v>
    <v>       0.75000000       0.75000000       0.41666700 </v>
    <v>       0.75000000       0.75000000       0.75000000 </v>
    <v>       0.58333300       0.58333300       0.41666700 </v>
    <v>       0.58333300       0.58333300       0.75000000 </v>
    <v>       0.58333300       0.91666700       0.41666700 </v>
    <v>       0.58333300       0.91666700       0.75000000 </v>
    <v>       0.91666700       0.58333300       0.41666700 </v>
    <v>       0.91666700       0.58333300       0.75000000 </v>
    <v>       0.91666700       0.91666700       0.41666700 </v>
    <v>       0.91666700       0.91666700       0.75000000 </v>
    <v>       0.41666700       0.58333300       0.58333300 </v>
    <v>       0.41666700       0.58333300       0.91666700 </v>
    <v>       0.41666700       0.91666700       0.58333300 </v>
    <v>       0.41666700       0.91666700       0.91666700 </v>
    <v>       0.75000000       0.58333300       0.58333300 </v>
    <v>       0.75000000       0.58333300       0.91666700 </v>
    <v>       0.75000000       0.91666700       0.58333300 </v>
    <v>       0.75000000       0.91666700       0.91666700 </v>
    <v>       0.58333300       0.41666700       0.58333300 </v>
    <v>       0.58333300       0.41666700       0.91666700 </v>
    <v>       0.58333300       0.75000000       0.58333300 </v>
    <v>       0.58333300       0.75000000       0.91666700 </v>
    <v>       0.91666700       0.41666700       0.58333300 </v>
    <v>       0.91666700       0.41666700       0.91666700 </v>
    <v>       0.91666700       0.75000000       0.58333300 </v>
    <v>       0.91666700       0.75000000       0.91666700 </v>
   </varray>
  </structure>
  <varray name="forces" >
   <v>       0.00000000      -0.00000000      -0.00000000 </v>
   <v>      -0.00000000       0.00000000      -0.00000000 </v>
   <v>      -0.00000000      -0.00000000      -0.00000000 </v>
   <v>       0.00000000      -0.00000000       0.00000000 </v>
   <v>       0.00000000       0.00000000       0.00000000 </v>
   <v>      -0.00000000      -0.00000000      -0.00000000 </v>
   <v>      -0.00000000       0.00000000       0.00000000 </v>
   <v>      -0.00000000      -0.00000000      -0.00000000 </v>
   <v>      -0.00000000      -0.00000000       0.00000000 </v>
   <v>       0.00000000       0.00000000      -0.00000000 </v>
   <v>      -0.00000000       0.00000000      -0.00000000 </v>
   <v>      -0.00000000      -0.00000000       0.00000000 </v>
   <v>      -0.00000000       0.00000000      -0.00000000 </v>
   <v>      -0.00000000       0.00000000       0.00000000 </v>
   <v>      -0.00000000      -0.00000000      -0.00000000 </v>
   <v>       0.00000000       0.00000000       0.00000000 </v>
   <v>       0.00000000      -0.00000000      -0.00000000 </v>
   <v>       0.00000000      -0.00000000       0.00000000 </v>
   <v>      -0.00000000       0.00000000       0.00000000 </v>
   <v>       0.00000000      -0.00000000      -0.00000000 </v>
   <v>      -0.00000000      -0.00000000      -0.00000000 </v>
   <v>       0.00000000      -0.00000000      -0.00000000 </v>
   <v>       0.00000000      -0.00000000       0.00000000 </v>
   <v>      -0.00000000      -0.00000000      -0.00000000 </v>
   <v>       0.00000000      -0.00000000      -0.00000000 </v>
   <v>      -0.00000000      -0.00000000      -0.00000000 </v>
   <v>      -0.00000000      -0.00000000       0.00000000 </v>
   <v>       0.00000000       0.00000000      -0.00000000 </v>
   <v>       0.00000000      -0.00000000      -0.00000000 </v>
   <v>      -0.00000000       0.00000000      -0.00000000 </v>
   <v>      -0.00000000      -0.00000000       0.00000000 </v>
   <v>      -0.00000000      -0.00000000      -0.00000000 </v>
   <v>      -0.00000000      -0.00000000       0.00000000 </v>
   <v>      -0.00000000      -0.00000000       0.00000000 </v>
   <v>      -0.00000000       0.00000000      -0.00000000 </v>
   <v>       0.00000000      -0.00000000      -0.00000000 </v>
   <v>      -0.00000000       0.00000000       0.00000000 </v>
   <v>       0.00000000      -0.00000000       0.00000000 </v>
   <v>      -0.00000000       0.00000000      -0.00000000 </v>
   <v>      -0.00000000       0.00000000       0.00000000 </v>
   <v>      -0.00000000       0.00000000      -0.00000000 </v>
   <v>       0.00000000       0.00000000       0.00000000 </v>
   <v>       0.00000000      -0.00000000       0.00000000 </v>
   <v>       0.00000000      -0.00000000      -0.00000000 </v>
   <v>       0.00000000       0.00000000      -0.00000000 </v>
   <v>      -0.00000000      -0.00000000      -0.00000000 </v>
   <v>       0.00000000      -0.00000000       0.00000000 </v>
   <v>      -0.00000000      -0.00000000      -0.00000000 </v>
   <v>       0.00000000       0.00000000      -0.00000000 </v>
   <v>      -0.00000000      -0.00000000      -0.00000000 </v>
   <v>      -0.00000000       0.00000000       0.00000000 </v>
   <v>      -0.00000000       0.00000000      -0.00000000 </v>
   <v>      -0.00000000      -0.00000000      -0.00000000 </v>
   <v>      -0.00000000       0.00000000      -0.00000000 </v>
   <v>      -0.00000000      -0.00000000       0.00000000 </v>
   <v>      -0.00000000       0.00000000      -0.00000000 </v>
   <v>      -0.00000000       0.00000000      -0.00000000 </v>
   <v>       0.00000000      -0.00000000       0.00000000 </v>
   <v>      -0.00000000       0.00000000      -0.00000000 </v>
   <v>       0.00000000       0.00000000      -0.00000000 </v>
   <v>       0.00000000       0.00000000       0.00000000 </v>
   <v>       0.00000000      -0.00000000       0.00000000 </v>
   <v>       0.00000000      -0.00000000      -0.00000000 </v>
   <v>       0.00000000       0.00000000      -0.00000000 </v>
   <v>      -0.00000000       0.00000000      -0.00000000 </v>
   <v>       0.00000000      -0.00000000       0.00000000 </v>
   <v>      -0.00000000      -0.00000000      -0.00000000 </v>
   <v>       0.00000000       0.00000000      -0.00000000 </v>
   <v>       0.00000000       0.00000000       0.00000000 </v>
   <v>      -0.00000000      -0.00000000      -0.00000000 </v>
   <v>      -0.00000000       0.00000000      -0.00000000 </v>
   <v>      -0.00000000      -0.00000000      -0.00000000 </v>
   <v>      -0.00000000       0.00000000      -0.00000000 </v>
   <v>      -0.00000000      -0.00000000      -0.00000000 </v>
   <v>      -0.00000000       0.00000000      -0.00000000 </v>
   <v>       0.00000000      -0.00000000       0.00000000 </v>
   <v>      -0.00000000      -0.00000000      -0.00000000 </v>
   <v>      -0.00000000       0.00000000       0.00000000 </v>
   <v>       0.00000000      -0.00000000       0.00000000 </v>
   <v>      -0.00000000       0.00000000      -0.00000000 </v>
   <v>       0.00000000       0.00000000      -0.00000000 </v>
   <v>       0.00000000       0.00000000      -0.00000000 </v>
   <v>      -0.00000000       0.00000000      -0.00000000 </v>
   <v>      -0.00000000       0.00000000       0.00000000 </v>
   <v>      -0.00000000      -0.00000000      -0.00000000 </v>
   <v>       0.00000000      -0.00000000       0.00000000 </v>
   <v>      -0.00000000      -0.00000000       0.00000000 </v>
   <v>      -0.00000000       0.00000000       0.00000000 </v>
   <v>       0.00000000       0.00000000      -0.00000000 </v>
   <v>       0.00000000      -0.00000000      -0.00000000 </v>
   <v>      -0.00000000       0.00000000      -0.00000000 </v>
   <v>      -0.00000000       0.00000000       0.00000000 </v>
   <v>       0.00000000      -0.00000000      -0.00000000 </v>
   <v>      -0.00000000       0.00000000       0.00000000 </v>
   <v>      -0.00000000       0.00000000       0.00000000 </v>
   <v>      -0.00000000      -0.00000000      -0.00000000 </v>
   <v>       0.00000000       0.00000000      -0.00000000 </v>
   <v>       0.00000000      -0.00000000      -0.00000000 </v>
   <v>      -0.00000000      -0.00000000      -0.00000000 </v>
   <v>       0.00000000      -0.00000000       0.00000000 </v>
   <v>       0.00000000      -0.00000000       0.00000000 </v>
   <v>      -0.00000000      -0.00000000      -0.00000000 </v>
   <v>      -0.00000000      -0.00000000      -0.00000000 </v>
   <v>       0.00000000       0.00000000      -0.00000000 </v>
   <v>       0.00000000      -0.00000000      -0.00000000 </v>
   <v>       0.00000000       0.00000000       0.00000000 </v>
   <v>      -0.00000000       0.00000000      -0.00000000 </v>
   <v>       0.00000000       0.00000000      -0.00000000 </v>
   <v>      -0.00000000      -0.00000000       0.00000000 </v>
   <v>       0.00000000      -0.00000000       0.00000000 </v>
   <v>       0.00000000      -0.00000000      -0.00000000 </v>
   <v>      -0.00000000       0.00000000       0.00000000 </v>
   <v>      -0.00000000      -0.00000000       0.00000000 </v>
   <v>       0.00000000      -0.00000000      -0.00000000 </v>
   <v>      -0.00000000      -0.00000000       0.00000000 </v>
   <v>      -0.00000000       0.00000000      -0.00000000 </v>
   <v>      -0.00000000      -0.00000000       0.00000000 </v>
   <v>      -0.00000000      -0.00000000       0.00000000 </v>
   <v>      -0.00000000       0.00000000       0.00000000 </v>
   <v>      -0.00000000       0.00000000      -0.00000000 </v>
   <v>       0.00000000       0.00000000      -0.00000000 </v>
   <v>       0.00000000      -0.00000000       0.00000000 </v>
   <v>       0.00000000      -0.00000000      -0.00000000 </v>
   <v>       0.00000000      -0.00000000       0.00000000 </v>
   <v>      -0.00000000      -0.00000000       0.00000000 </v>
   <v>       0.00000000      -0.00000000       0.00000000 </v>
   <v>       0.00000000      -0.00000000      -0.00000000 </v>
   <v>      -0.00000000      -0.00000000       0.00000000 </v>
   <v>       0.00000000       0.00000000       0.00000000 </v>
   <v>       0.00000000       0.00000000      -0.00000000 </v>
   <v>       0.00000000      -0.00000000       0.00000000 </v>
   <v>       0.00000000      -0.00000000       0.00000000 </v>
   <v>      -0.00000000       0.00000000       0.00000000 </v>
   <v>       0.00000000       0.00000000      -0.00000000 </v>
   <v>      -0.00000000       0.00000000       0.00000000 </v>
   <v>       0.00000000      -0.00000000       0.00000000 </v>
   <v>      -0.00000000      -0.00000000      -0.00000000 </v>
   <v>      -0.00000000       0.00000000       0.00000000 </v>
   <v>      -0.00000000      -0.00000000       0.00000000 </v>
   <v>       0.00000000       0.00000000      -0.00000000 </v>
   <v>      -0.00000000      -0.00000000       0.00000000 </v>
   <v>       0.00000000      -0.00000000      -0.00000000 </v>
   <v>      -0.00000000       0.00000000       0.00000000 </v>
   <v>       0.00000000      -0.00000000       0.00000000 </v>
   <v>       0.00000000       0.00000000      -0.00000000 </v>
   <v>      -0.00000000       0.00000000       0.00000000 </v>
   <v>       0.00000000      -0.00000000      -0.00000000 </v>
   <v>      -0.00000000       0.00000000       0.00000000 </v>
   <v>       0.00000000      -0.00000000       0.00000000 </v>
   <v>      -0.00000000      -0.00000000       0.00000000 </v>
   <v>       0.00000000      -0.00000000      -0.00000000 </v>
   <v>       0.00000000       0.00000000       0.00000000 </v>
   <v>      -0.00000000      -0.00000000       0.00000000 </v>
   <v>       0.00000000      -0.00000000      -0.00000000 </v>
   <v>      -0.00000000      -0.00000000       0.00000000 </v>
   <v>      -0.00000000       0.00000000       0.00000000 </v>
   <v>       0.00000000      -0.00000000       0.00000000 </v>
   <v>       0.00000000      -0.00000000      -0.00000000 </v>
   <v>      -0.00000000      -0.00000000       0.00000000 </v>
   <v>       0.00000000      -0.00000000       0.00000000 </v>
   <v>      -0.00000000      -0.00000000      -0.00000000 </v>
   <v>       0.00000000      -0.00000000       0.00000000 </v>
   <v>      -0.00000000      -0.00000000       0.00000000 </v>
   <v>      -0.00000000       0.00000000      -0.00000000 </v>
   <v>      -0.00000000      -0.00000000       0.00000000 </v>
   <v>       0.00000000      -0.00000000      -0.00000000 </v>
   <v>      -0.00000000       0.00000000       0.00000000 </v>
   <v>      -0.00000000      -0.00000000       0.00000000 </v>
   <v>       0.00000000      -0.00000000       0.00000000 </v>
   <v>       0.00000000       0.00000000       0.00000000 </v>
   <v>       0.00000000      -0.00000000       0.00000000 </v>
   <v>       0.00000000      -0.00000000      -0.00000000 </v>
   <v>      -0.00000000      -0.00000000       0.00000000 </v>
   <v>       0.00000000       0.00000000       0.00000000 </v>
   <v>      -0.00000000      -0.00000000       0.00000000 </v>
   <v>       0.00000000       0.00000000      -0.00000000 </v>
   <v>       0.00000000      -0.00000000       0.00000000 </v>
   <v>       0.00000000       0.00000000      -0.00000000 </v>
   <v>       0.00000000       0.00000000      -0.00000000 </v>
   <v>       0.00000000       0.00000000       0.00000000 </v>
   <v>      -0.00000000       0.00000000       0.00000000 </v>
   <v>       0.00000000       0.00000000       0.00000000 </v>
   <v>      -0.00000000      -0.00000000       0.00000000 </v>
   <v>       0.00000000      -0.00000000      -0.00000000 </v>
   <v>       0.00000000      -0.00000000       0.00000000 </v>
   <v>      -0.00000000      -0.00000000       0.00000000 </v>
   <v>       0.00000000      -0.00000000       0.00000000 </v>
   <v>       0.00000000      -0.00000000       0.00000000 </v>
   <v>      -0.00000000      -0.00000000       0.00000000 </v>
   <v>       0.00000000      -0.00000000      -0.00000000 </v>
   <v>       0.00000000      -0.00000000      -0.00000000 </v>
   <v>      -0.00000000      -0.00000000       0.00000000 </v>
   <v>      -0.00000000       0.00000000      -0.00000000 </v>
   <v>      -0.00000000      -0.00000000       0.00000000 </v>
   <v>       0.00000000      -0.00000000       0.00000000 </v>
   <v>      -0.00000000       0.00000000       0.00000000 </v>
   <v>      -0.00000000      -0.00000000       0.00000000 </v>
   <v>       0.00000000      -0.00000000      -0.00000000 </v>
   <v>      -0.00000000      -0.00000000      -0.00000000 </v>
   <v>      -0.00000000       0.00000000       0.00000000 </v>
   <v>       0.00000000       0.00000000       0.00000000 </v>
   <v>       0.00000000      -0.00000000       0.00000000 </v>
   <v>       0.00000000      -0.00000000       0.00000000 </v>
   <v>      -0.00000000      -0.00000000      -0.00000000 </v>
   <v>      -0.00000000       0.00000000      -0.00000000 </v>
   <v>      -0.00000000       0.00000000       0.00000000 </v>
   <v>      -0.00000000       0.00000000       0.00000000 </v>
   <v>      -0.00000000       0.00000000       0.00000000 </v>
   <v>       0.00000000      -0.00000000      -0.00000000 </v>
   <v>       0.00000000      -0.00000000       0.00000000 </v>
   <v>      -0.00000000      -0.00000000       0.00000000 </v>
   <v>       0.00000000       0.00000000       0.00000000 </v>
   <v>      -0.00000000       0.00000000       0.00000000 </v>
   <v>      -0.00000000       0.00000000       0.00000000 </v>
   <v>       0.00000000      -0.00000000      -0.00000000 </v>
   <v>       0.00000000      -0.00000000       0.00000000 </v>
  </varray>
  <varray name="stress" >
   <v>      17.77472945       0.00000000      -0.00000000 </v>
   <v>      -0.00000000      17.77472945       0.00000000 </v>
   <v>      -0.00000000       0.00000000      17.77472945 </v>
  </varray>
  <energy>
   <i name="e_fr_energy">  -1625.62823120 </i>
   <i name="e_wo_entrp">  -1625.62823120 </i>
   <i name="e_0_energy">     -0.00000000 </i>
  </energy>
  <time name="totalsc">  810.01  809.82</time>
  <eigenvalues>
   <array>
    <dimension dim="1">band</dimension>
    <dimension dim="2">kpoint</dimension>
    <dimension dim="3">spin</dimension>
    <field>eigene</field>
    <field>occ</field>
    <set>
     <set comment="spin 1">
      <set comment="kpoint 1">
       <r>   -7.2990    1.0000 </r>
       <r>   -6.5803    1.0000 </r>
       <r>   -6.5803    1.0000 </r>
       <r>   -6.5803    1.0000 </r>
       <r>   -6.5803    1.0000 </r>
       <r>   -6.5803    1.0000 </r>
       <r>   -6.5803    1.0000 </r>
       <r>   -5.8861    1.0000 </r>
       <r>   -5.8861    1.0000 </r>
       <r>   -5.8861    1.0000 </r>
       <r>   -5.8861    1.0000 </r>
       <r>   -5.8861    1.0000 </r>
       <r>   -5.8861    1.0000 </r>
       <r>   -5.8861    1.0000 </r>
       <r>   -5.8861    1.0000 </r>
       <r>   -5.8861    1.0000 </r>
       <r>   -5.8861    1.0000 </r>
       <r>   -5.8861    1.0000 </r>
       <r>   -5.8861    1.0000 </r>
       <r>   -5.2356    1.0000 </r>
       <r>   -5.2356    1.0000 </r>
       <r>   -5.2356    1.0000 </r>
       <r>   -5.2356    1.0000 </r>
       <r>   -5.2356    1.0000 </r>
       <r>   -5.2356    1.0000 </r>
       <r>   -5.2356    1.0000 </r>
       <r>   -5.2356    1.0000 </r>
       <r>   -4.5275    1.0000 </r>
       <r>   -4.5275    1.0000 </r>
       <r>   -4.5275    1.0000 </r>
       <r>   -4.5274    1.0000 </r>
       <r>   -4.5274    1.0000 </r>
       <r>   -4.5274    1.0000 </r>
       <r>   -3.9541    1.0000 </r>
       <r>   -3.9541    1.0000 </r>
       <r>   -3.9541    1.0000 </r>
       <r>   -3.9540    1.0000 </r>
       <r>   -3.9540    1.0000 </r>
       <r>   -3.9540    1.0000 </r>
       <r>   -3.9540    1.0000 </r>
       <r>   -3.9540    1.0000 </r>
       <r>   -3.9540    1.0000 </r>
       <r>   -3.9540    1.0000 </r>
       <r>   -3.9540    1.0000 </r>
       <r>   -3.9540    1.0000 </r>
       <r>   -3.9539    1.0000 </r>
       <r>   -3.9539    1.0000 </r>
       <r>   -3.9539    1.0000 </r>
       <r>   -3.9539    1.0000 </r>
       <r>   -3.9539    1.0000 </r>
       <r>   -3.9539    1.0000 </r>
       <r>   -3.9539    1.0000 </r>
       <r>   -3.9539    1.0000 </r>
       <r>   -3.9539    1.0000 </r>
       <r>   -3.9539    1.0000 </r>
       <r>   -3.9539    1.0000 </r>
       <r>   -3.9539    1.0000 </r>
       <r>   -3.5952    1.0000 </r>
       <r>   -3.5952    1.0000 </r>
       <r>   -3.5952    1.0000 </r>
       <r>   -3.5952    1.0000 </r>
       <r>   -3.5952    1.0000 </r>
       <r>   -3.5952    1.0000 </r>
       <r>   -3.5952    1.0000 </r>
       <r>   -3.5952    1.0000 </r>
       <r>   -3.5952    1.0000 </r>
       <r>   -3.5951    1.0000 </r>
       <r>   -3.5951    1.0000 </r>
       <r>   -3.5951    1.0000 </r>
       <r>   -3.5950    1.0000 </r>
       <r>   -3.5950    1.0000 </r>
       <r>   -3.5950    1.0000 </r>
       <r>   -3.5950    1.0000 </r>
       <r>   -3.5950    1.0000 </r>
       <r>   -3.5950    1.0000 </r>
       <r>   -3.5950    1.0000 </r>
       <r>   -3.5950    1.0000 </r>
       <r>   -3.5950    1.0000 </r>
       <r>   -3.5950    1.0000 </r>
       <r>   -3.5950    1.0000 </r>
       <r>   -3.5950    1.0000 </r>
       <r>   -2.6733    1.0000 </r>
       <r>   -2.6733    1.0000 </r>
       <r>   -2.6733    1.0000 </r>
       <r>   -2.6732    1.0000 </r>
       <r>   -2.6732    1.0000 </r>
       <r>   -2.6732    1.0000 </r>
       <r>   -2.6732    1.0000 </r>
       <r>   -2.6732    1.0000 </r>
       <r>   -2.6732    1.0000 </r>
       <r>   -2.6731    1.0000 </r>
       <r>   -2.6731    1.0000 </r>
       <r>   -2.6731    1.0000 </r>
       <r>   -2.2878    1.0000 </r>
       <r>   -2.2878    1.0000 </r>
       <r>   -2.2878    1.0000 </r>
       <r>   -2.1194    1.0000 </r>
       <r>   -2.1194    1.0000 </r>
       <r>   -2.1194    1.0000 </r>
       <r>   -2.1194    1.0000 </r>
       <r>   -2.1194    1.0000 </r>
       <r>   -2.1194    1.0000 </r>
       <r>   -2.1194    1.0000 </r>
       <r>   -2.1194    1.0000 </r>
       <r>   -2.1194    1.0000 </r>
       <r>   -2.1194    1.0000 </r>
       <r>   -2.1194    1.0000 </r>
       <r>   -2.1194    1.0000 </r>
       <r>    0.3038    1.0000 </r>
       <r>    0.3038    1.0000 </r>
       <r>    0.3038    1.0000 </r>
       <r>    0.3312    1.0000 </r>
       <r>    0.3312    1.0000 </r>
       <r>    0.3312    1.0000 </r>
       <r>    0.3312    1.0000 </r>
       <r>    0.3312    1.0000 </r>
       <r>    0.3312    1.0000 </r>
       <r>    0.3313    1.0000 </r>
       <r>    0.3313    1.0000 </r>
       <r>    0.3313    1.0000 </r>
       <r>    0.3313    1.0000 </r>
       <r>    0.3313    1.0000 </r>
       <r>    0.3313    1.0000 </r>
       <r>    0.3313    1.0000 </r>
       <r>    0.3313    1.0000 </r>
       <r>    0.3313    1.0000 </r>
       <r>    0.3313    1.0000 </r>
       <r>    0.3313    1.0000 </r>
       <r>    0.3313    1.0000 </r>
       <r>    0.3314    1.0000 </r>
       <r>    0.3314    1.0000 </r>
       <r>    0.3314    1.0000 </r>
       <r>    0.3314    1.0000 </r>
       <r>    0.3314    1.0000 </r>
       <r>    0.3314    1.0000 </r>
[...]
       <r>    15.9220     0.0000  1082.0000 </r>
       <r>    15.9270     0.0000  1082.0000 </r>
       <r>    15.9320     0.0000  1082.0000 </r>
       <r>    15.9370     0.0000  1082.0000 </r>
       <r>    15.9420     0.0000  1082.0000 </r>
       <r>    15.9470     0.0000  1082.0000 </r>
       <r>    15.9519     0.0000  1082.0000 </r>
       <r>    15.9569     0.0000  1082.0000 </r>
       <r>    15.9619     0.0000  1082.0000 </r>
       <r>    15.9669     0.0000  1082.0000 </r>
       <r>    15.9719     0.0000  1082.0000 </r>
       <r>    15.9769     0.0000  1082.0000 </r>
       <r>    15.9819     0.0000  1082.0000 </r>
       <r>    15.9868     0.0000  1082.0000 </r>
       <r>    15.9918     0.0000  1082.0000 </r>
       <r>    15.9968     0.0000  1082.0000 </r>
       <r>    16.0018     0.0000  1082.0000 </r>
       <r>    16.0068     0.0000  1082.0000 </r>
       <r>    16.0118     0.0000  1082.0000 </r>
       <r>    16.0168     0.0000  1082.0000 </r>
       <r>    16.0218     0.0000  1082.0000 </r>
       <r>    16.0267     0.0000  1082.0000 </r>
       <r>    16.0317     0.0000  1082.0000 </r>
       <r>    16.0367     0.0000  1082.0000 </r>
       <r>    16.0417     0.0000  1082.0000 </r>
       <r>    16.0467     0.0000  1082.0000 </r>
       <r>    16.0517     0.0000  1082.0000 </r>
       <r>    16.0567     0.0000  1082.0000 </r>
       <r>    16.0616     0.0000  1082.0000 </r>
       <r>    16.0666     0.0000  1082.0000 </r>
       <r>    16.0716     0.0000  1082.0000 </r>
       <r>    16.0766     0.0000  1082.0000 </r>
       <r>    16.0816     0.0000  1082.0000 </r>
       <r>    16.0866     0.0000  1082.0000 </r>
       <r>    16.0916     0.0000  1082.0000 </r>
       <r>    16.0965     0.0000  1082.0000 </r>
       <r>    16.1015     0.0000  1082.0000 </r>
       <r>    16.1065     0.0000  1082.0000 </r>
       <r>    16.1115     0.0000  1082.0000 </r>
       <r>    16.1165     0.0000  1082.0000 </r>
       <r>    16.1215     0.0000  1082.0000 </r>
       <r>    16.1265     0.0000  1082.0000 </r>
       <r>    16.1315     0.0000  1082.0000 </r>
       <r>    16.1364     0.0000  1082.0000 </r>
       <r>    16.1414     0.0000  1082.0000 </r>
       <r>    16.1464     0.0000  1082.0000 </r>
       <r>    16.1514     0.0000  1082.0000 </r>
       <r>    16.1564     0.0000  1082.0000 </r>
       <r>    16.1614     0.0000  1082.0000 </r>
       <r>    16.1664     0.0000  1082.0000 </r>
       <r>    16.1713     0.0000  1082.0000 </r>
       <r>    16.1763     0.0000  1082.0000 </r>
       <r>    16.1813     0.0000  1082.0000 </r>
       <r>    16.1863     0.0000  1082.0000 </r>
       <r>    16.1913     0.0000  1082.0000 </r>
       <r>    16.1963     0.0000  1082.0000 </r>
       <r>    16.2013     0.0000  1082.0000 </r>
       <r>    16.2063     0.0000  1082.0000 </r>
       <r>    16.2112     0.0000  1082.0000 </r>
       <r>    16.2162     0.0000  1082.0000 </r>
       <r>    16.2212     0.0000  1082.0000 </r>
       <r>    16.2262     0.0000  1082.0000 </r>
       <r>    16.2312     0.0000  1082.0000 </r>
       <r>    16.2362     0.0000  1082.0000 </r>
       <r>    16.2412     0.0000  1082.0000 </r>
       <r>    16.2461     0.0000  1082.0000 </r>
       <r>    16.2511     0.0000  1082.0000 </r>
       <r>    16.2561     0.0000  1082.0000 </r>
       <r>    16.2611     0.0000  1082.0000 </r>
       <r>    16.2661     0.0000  1082.0000 </r>
       <r>    16.2711     0.0000  1082.0000 </r>
       <r>    16.2761     0.0000  1082.0000 </r>
       <r>    16.2810     0.0000  1082.0000 </r>
       <r>    16.2860     0.0000  1082.0000 </r>
       <r>    16.2910     0.0000  1082.0000 </r>
       <r>    16.2960     0.0000  1082.0000 </r>
       <r>    16.3010     0.0000  1082.0000 </r>
       <r>    16.3060     0.0000  1082.0000 </r>
       <r>    16.3110     0.0000  1082.0000 </r>
       <r>    16.3160     0.0000  1082.0000 </r>
       <r>    16.3209     0.0000  1082.0000 </r>
       <r>    16.3259     0.0000  1082.0000 </r>
       <r>    16.3309     0.0000  1082.0000 </r>
       <r>    16.3359     0.0000  1082.0000 </r>
       <r>    16.3409     0.0000  1082.0000 </r>
       <r>    16.3459     0.0000  1082.0000 </r>
       <r>    16.3509     0.0000  1082.0000 </r>
       <r>    16.3558     0.0000  1082.0000 </r>
       <r>    16.3608     0.0000  1082.0000 </r>
       <r>    16.3658     0.0000  1082.0000 </r>
       <r>    16.3708     0.0000  1082.0000 </r>
       <r>    16.3758     0.0000  1082.0000 </r>
       <r>    16.3808     0.0000  1082.0000 </r>
       <r>    16.3858     0.0000  1082.0000 </r>
       <r>    16.3908     0.0000  1082.0000 </r>
       <r>    16.3957     0.0000  1082.0000 </r>
       <r>    16.4007     0.0000  1082.0000 </r>
       <r>    16.4057     0.0000  1082.0000 </r>
       <r>    16.4107     0.0000  1082.0000 </r>
       <r>    16.4157     0.0000  1082.0000 </r>
       <r>    16.4207     0.0000  1082.0000 </r>
       <r>    16.4257     0.0000  1082.0000 </r>
       <r>    16.4306     0.0000  1082.0000 </r>
       <r>    16.4356     0.0000  1082.0000 </r>
       <r>    16.4406     0.0000  1082.0000 </r>
       <r>    16.4456     0.0000  1082.0000 </r>
       <r>    16.4506     0.0000  1082.0000 </r>
       <r>    16.4556     0.0000  1082.0000 </r>
       <r>    16.4606     0.0000  1082.0000 </r>
       <r>    16.4656     0.0000  1082.0000 </r>
       <r>    16.4705     0.0000  1082.0000 </r>
       <r>    16.4755     0.0000  1082.0000 </r>
       <r>    16.4805     0.0000  1082.0000 </r>
       <r>    16.4855     0.0000  1082.0000 </r>
       <r>    16.4905     0.0000  1082.0000 </r>
       <r>    16.4955     0.0000  1082.0000 </r>
      </set>
     </set>
    </array>
   </total>
  </dos>
 </calculation>
 <structure name="finalpos" >
  <crystal>
   <varray name="basis" >
    <v>      13.08000000       0.00000000       0.00000000 </v>
    <v>       0.00000000      13.08000000       0.00000000 </v>
    <v>       0.00000000       0.00000000      13.08000000 </v>
   </varray>
   <i name="volume">   2237.81011200 </i>
   <varray name="rec_basis" >
    <v>       0.07645260       0.00000000       0.00000000 </v>
    <v>       0.00000000       0.07645260       0.00000000 </v>
    <v>       0.00000000       0.00000000       0.07645260 </v>
   </varray>
  </crystal>
  <varray name="positions" >
   <v>       0.00000000       0.00000000       0.00000000 </v>
   <v>       0.16666700       0.16666700       0.00000000 </v>
   <v>       0.16666700       0.00000000       0.16666700 </v>
   <v>       0.00000000       0.16666700       0.16666700 </v>
   <v>       0.33333300       0.00000000       0.00000000 </v>
   <v>       0.66666700       0.00000000       0.00000000 </v>
   <v>       0.50000000       0.16666700       0.00000000 </v>
   <v>       0.83333300       0.16666700       0.00000000 </v>
   <v>       0.50000000       0.00000000       0.16666700 </v>
   <v>       0.83333300       0.00000000       0.16666700 </v>
   <v>       0.33333300       0.16666700       0.16666700 </v>
   <v>       0.66666700       0.16666700       0.16666700 </v>
   <v>       0.00000000       0.33333300       0.00000000 </v>
   <v>       0.00000000       0.66666700       0.00000000 </v>
   <v>       0.16666700       0.50000000       0.00000000 </v>
   <v>       0.16666700       0.83333300       0.00000000 </v>
   <v>       0.16666700       0.33333300       0.16666700 </v>
   <v>       0.16666700       0.66666700       0.16666700 </v>
   <v>       0.00000000       0.50000000       0.16666700 </v>
   <v>       0.00000000       0.83333300       0.16666700 </v>
   <v>       0.33333300       0.33333300       0.00000000 </v>
   <v>       0.33333300       0.66666700       0.00000000 </v>
   <v>       0.66666700       0.33333300       0.00000000 </v>
   <v>       0.66666700       0.66666700       0.00000000 </v>
   <v>       0.50000000       0.50000000       0.00000000 </v>
   <v>       0.50000000       0.83333300       0.00000000 </v>
   <v>       0.83333300       0.50000000       0.00000000 </v>
   <v>       0.83333300       0.83333300       0.00000000 </v>
   <v>       0.50000000       0.33333300       0.16666700 </v>
   <v>       0.50000000       0.66666700       0.16666700 </v>
   <v>       0.83333300       0.33333300       0.16666700 </v>
   <v>       0.83333300       0.66666700       0.16666700 </v>
   <v>       0.33333300       0.50000000       0.16666700 </v>
   <v>       0.33333300       0.83333300       0.16666700 </v>
   <v>       0.66666700       0.50000000       0.16666700 </v>
   <v>       0.66666700       0.83333300       0.16666700 </v>
   <v>       0.00000000       0.00000000       0.33333300 </v>
   <v>       0.00000000       0.00000000       0.66666700 </v>
   <v>       0.16666700       0.16666700       0.33333300 </v>
   <v>       0.16666700       0.16666700       0.66666700 </v>
   <v>       0.16666700       0.00000000       0.50000000 </v>
   <v>       0.16666700       0.00000000       0.83333300 </v>
   <v>       0.00000000       0.16666700       0.50000000 </v>
   <v>       0.00000000       0.16666700       0.83333300 </v>
   <v>       0.33333300       0.00000000       0.33333300 </v>
   <v>       0.33333300       0.00000000       0.66666700 </v>
   <v>       0.66666700       0.00000000       0.33333300 </v>
   <v>       0.66666700       0.00000000       0.66666700 </v>
   <v>       0.50000000       0.16666700       0.33333300 </v>
   <v>       0.50000000       0.16666700       0.66666700 </v>
   <v>       0.83333300       0.16666700       0.33333300 </v>
   <v>       0.83333300       0.16666700       0.66666700 </v>
   <v>       0.50000000       0.00000000       0.50000000 </v>
   <v>       0.50000000       0.00000000       0.83333300 </v>
   <v>       0.83333300       0.00000000       0.50000000 </v>
   <v>       0.83333300       0.00000000       0.83333300 </v>
   <v>       0.33333300       0.16666700       0.50000000 </v>
   <v>       0.33333300       0.16666700       0.83333300 </v>
   <v>       0.66666700       0.16666700       0.50000000 </v>
   <v>       0.66666700       0.16666700       0.83333300 </v>
   <v>       0.00000000       0.33333300       0.33333300 </v>
   <v>       0.00000000       0.33333300       0.66666700 </v>
   <v>       0.00000000       0.66666700       0.33333300 </v>
   <v>       0.00000000       0.66666700       0.66666700 </v>
   <v>       0.16666700       0.50000000       0.33333300 </v>
   <v>       0.16666700       0.50000000       0.66666700 </v>
   <v>       0.16666700       0.83333300       0.33333300 </v>
   <v>       0.16666700       0.83333300       0.66666700 </v>
   <v>       0.16666700       0.33333300       0.50000000 </v>
   <v>       0.16666700       0.33333300       0.83333300 </v>
   <v>       0.16666700       0.66666700       0.50000000 </v>
   <v>       0.16666700       0.66666700       0.83333300 </v>
   <v>       0.00000000       0.50000000       0.50000000 </v>
   <v>       0.00000000       0.50000000       0.83333300 </v>
   <v>       0.00000000       0.83333300       0.50000000 </v>
   <v>       0.00000000       0.83333300       0.83333300 </v>
   <v>       0.33333300       0.33333300       0.33333300 </v>
   <v>       0.33333300       0.33333300       0.66666700 </v>
   <v>       0.33333300       0.66666700       0.33333300 </v>
   <v>       0.33333300       0.66666700       0.66666700 </v>
   <v>       0.66666700       0.33333300       0.33333300 </v>
   <v>       0.66666700       0.33333300       0.66666700 </v>
   <v>       0.66666700       0.66666700       0.33333300 </v>
   <v>       0.66666700       0.66666700       0.66666700 </v>
   <v>       0.50000000       0.50000000       0.33333300 </v>
   <v>       0.50000000       0.50000000       0.66666700 </v>
   <v>       0.50000000       0.83333300       0.33333300 </v>
   <v>       0.50000000       0.83333300       0.66666700 </v>
   <v>       0.83333300       0.50000000       0.33333300 </v>
   <v>       0.83333300       0.50000000       0.66666700 </v>
   <v>       0.83333300       0.83333300       0.33333300 </v>
   <v>       0.83333300       0.83333300       0.66666700 </v>
   <v>       0.50000000       0.33333300       0.50000000 </v>
   <v>       0.50000000       0.33333300       0.83333300 </v>
   <v>       0.50000000       0.66666700       0.50000000 </v>
   <v>       0.50000000       0.66666700       0.83333300 </v>
   <v>       0.83333300       0.33333300       0.50000000 </v>
   <v>       0.83333300       0.33333300       0.83333300 </v>
   <v>       0.83333300       0.66666700       0.50000000 </v>
   <v>       0.83333300       0.66666700       0.83333300 </v>
   <v>       0.33333300       0.50000000       0.50000000 </v>
   <v>       0.33333300       0.50000000       0.83333300 </v>
   <v>       0.33333300       0.83333300       0.50000000 </v>
   <v>       0.33333300       0.83333300       0.83333300 </v>
   <v>       0.66666700       0.50000000       0.50000000 </v>
   <v>       0.66666700       0.50000000       0.83333300 </v>
   <v>       0.66666700       0.83333300       0.50000000 </v>
   <v>       0.66666700       0.83333300       0.83333300 </v>
   <v>       0.08333300       0.08333300       0.08333300 </v>
   <v>       0.25000000       0.25000000       0.08333300 </v>
   <v>       0.08333300       0.25000000       0.25000000 </v>
   <v>       0.25000000       0.08333300       0.25000000 </v>
   <v>       0.41666700       0.08333300       0.08333300 </v>
   <v>       0.75000000       0.08333300       0.08333300 </v>
   <v>       0.58333300       0.25000000       0.08333300 </v>
   <v>       0.91666700       0.25000000       0.08333300 </v>
   <v>       0.41666700       0.25000000       0.25000000 </v>
   <v>       0.75000000       0.25000000       0.25000000 </v>
   <v>       0.58333300       0.08333300       0.25000000 </v>
   <v>       0.91666700       0.08333300       0.25000000 </v>
   <v>       0.08333300       0.41666700       0.08333300 </v>
   <v>       0.08333300       0.75000000       0.08333300 </v>
   <v>       0.25000000       0.58333300       0.08333300 </v>
   <v>       0.25000000       0.91666700       0.08333300 </v>
   <v>       0.08333300       0.58333300       0.25000000 </v>
   <v>       0.08333300       0.91666700       0.25000000 </v>
   <v>       0.25000000       0.41666700       0.25000000 </v>
   <v>       0.25000000       0.75000000       0.25000000 </v>
   <v>       0.41666700       0.41666700       0.08333300 </v>
   <v>       0.41666700       0.75000000       0.08333300 </v>
   <v>       0.75000000       0.41666700       0.08333300 </v>
   <v>       0.75000000       0.75000000       0.08333300 </v>
   <v>       0.58333300       0.58333300       0.08333300 </v>
   <v>       0.58333300       0.91666700       0.08333300 </v>
   <v>       0.91666700       0.58333300       0.08333300 </v>
   <v>       0.91666700       0.91666700       0.08333300 </v>
   <v>       0.41666700       0.58333300       0.25000000 </v>
   <v>       0.41666700       0.91666700       0.25000000 </v>
   <v>       0.75000000       0.58333300       0.25000000 </v>
   <v>       0.75000000       0.91666700       0.25000000 </v>
   <v>       0.58333300       0.41666700       0.25000000 </v>
   <v>       0.58333300       0.75000000       0.25000000 </v>
   <v>       0.91666700       0.41666700       0.25000000 </v>
   <v>       0.91666700       0.75000000       0.25000000 </v>
   <v>       0.08333300       0.08333300       0.41666700 </v>
   <v>       0.08333300       0.08333300       0.75000000 </v>
   <v>       0.25000000       0.25000000       0.41666700 </v>
   <v>       0.25000000       0.25000000       0.75000000 </v>
   <v>       0.08333300       0.25000000       0.58333300 </v>
   <v>       0.08333300       0.25000000       0.91666700 </v>
   <v>       0.25000000       0.08333300       0.58333300 </v>
   <v>       0.25000000       0.08333300       0.91666700 </v>
   <v>       0.41666700       0.08333300       0.41666700 </v>
   <v>       0.41666700       0.08333300       0.75000000 </v>
   <v>       0.75000000       0.08333300       0.41666700 </v>
   <v>       0.75000000       0.08333300       0.75000000 </v>
   <v>       0.58333300       0.25000000       0.41666700 </v>
   <v>       0.58333300       0.25000000       0.75000000 </v>
   <v>       0.91666700       0.25000000       0.41666700 </v>
   <v>       0.91666700       0.25000000       0.75000000 </v>
   <v>       0.41666700       0.25000000       0.58333300 </v>
   <v>       0.41666700       0.25000000       0.91666700 </v>
   <v>       0.75000000       0.25000000       0.58333300 </v>
   <v>       0.75000000       0.25000000       0.91666700 </v>
   <v>       0.58333300       0.08333300       0.58333300 </v>
   <v>       0.58333300       0.08333300       0.91666700 </v>
   <v>       0.91666700       0.08333300       0.58333300 </v>
   <v>       0.91666700       0.08333300       0.91666700 </v>
   <v>       0.08333300       0.41666700       0.41666700 </v>
   <v>       0.08333300       0.41666700       0.75000000 </v>
   <v>       0.08333300       0.75000000       0.41666700 </v>
   <v>       0.08333300       0.75000000       0.75000000 </v>
   <v>       0.25000000       0.58333300       0.41666700 </v>
   <v>       0.25000000       0.58333300       0.75000000 </v>
   <v>       0.25000000       0.91666700       0.41666700 </v>
   <v>       0.25000000       0.91666700       0.75000000 </v>
   <v>       0.08333300       0.58333300       0.58333300 </v>
   <v>       0.08333300       0.58333300       0.91666700 </v>
   <v>       0.08333300       0.91666700       0.58333300 </v>
   <v>       0.08333300       0.91666700       0.91666700 </v>
   <v>       0.25000000       0.41666700       0.58333300 </v>
   <v>       0.25000000       0.41666700       0.91666700 </v>
   <v>       0.25000000       0.75000000       0.58333300 </v>
   <v>       0.25000000       0.75000000       0.91666700 </v>
   <v>       0.41666700       0.41666700       0.41666700 </v>
   <v>       0.41666700       0.41666700       0.75000000 </v>
   <v>       0.41666700       0.75000000       0.41666700 </v>
   <v>       0.41666700       0.75000000       0.75000000 </v>
   <v>       0.75000000       0.41666700       0.41666700 </v>
   <v>       0.75000000       0.41666700       0.75000000 </v>
   <v>       0.75000000       0.75000000       0.41666700 </v>
   <v>       0.75000000       0.75000000       0.75000000 </v>
   <v>       0.58333300       0.58333300       0.41666700 </v>
   <v>       0.58333300       0.58333300       0.75000000 </v>
   <v>       0.58333300       0.91666700       0.41666700 </v>
   <v>       0.58333300       0.91666700       0.75000000 </v>
   <v>       0.91666700       0.58333300       0.41666700 </v>
   <v>       0.91666700       0.58333300       0.75000000 </v>
   <v>       0.91666700       0.91666700       0.41666700 </v>
   <v>       0.91666700       0.91666700       0.75000000 </v>
   <v>       0.41666700       0.58333300       0.58333300 </v>
   <v>       0.41666700       0.58333300       0.91666700 </v>
   <v>       0.41666700       0.91666700       0.58333300 </v>
   <v>       0.41666700       0.91666700       0.91666700 </v>
   <v>       0.75000000       0.58333300       0.58333300 </v>
   <v>       0.75000000       0.58333300       0.91666700 </v>
   <v>       0.75000000       0.91666700       0.58333300 </v>
   <v>       0.75000000       0.91666700       0.91666700 </v>
   <v>       0.58333300       0.41666700       0.58333300 </v>
   <v>       0.58333300       0.41666700       0.91666700 </v>
   <v>       0.58333300       0.75000000       0.58333300 </v>
   <v>       0.58333300       0.75000000       0.91666700 </v>
   <v>       0.91666700       0.41666700       0.58333300 </v>
   <v>       0.91666700       0.41666700       0.91666700 </v>
   <v>       0.91666700       0.75000000       0.58333300 </v>
   <v>       0.91666700       0.75000000       0.91666700 </v>
  </varray>
 </structure>
</modeling>
