Silicon                                 
           1
    13.080000    0.000000    0.000000
     0.000000   13.080000    0.000000
     0.000000    0.000000   13.080000
   C    Si
 108 108
Direct configuration=     1
   0.00000000  0.00000000  0.00000000
   0.16666700  0.16666700  0.00000000
   0.16666700  0.00000000  0.16666700
   0.00000000  0.16666700  0.16666700
   0.33333300  0.00000000  0.00000000
   0.66666700  0.00000000  0.00000000
   0.50000000  0.16666700  0.00000000
   0.83333300  0.16666700  0.00000000
   0.50000000  0.00000000  0.16666700
   0.83333300  0.00000000  0.16666700
   0.33333300  0.16666700  0.16666700
   0.66666700  0.16666700  0.16666700
   0.00000000  0.33333300  0.00000000
   0.00000000  0.66666700  0.00000000
   0.16666700  0.50000000  0.00000000
   0.16666700  0.83333300  0.00000000
   0.16666700  0.33333300  0.16666700
   0.16666700  0.66666700  0.16666700
   0.00000000  0.50000000  0.16666700
   0.00000000  0.83333300  0.16666700
   0.33333300  0.33333300  0.00000000
   0.33333300  0.66666700  0.00000000
   0.66666700  0.33333300  0.00000000
   0.66666700  0.66666700  0.00000000
   0.50000000  0.50000000  0.00000000
   0.50000000  0.83333300  0.00000000
   0.83333300  0.50000000  0.00000000
   0.83333300  0.83333300  0.00000000
   0.50000000  0.33333300  0.16666700
   0.50000000  0.66666700  0.16666700
   0.83333300  0.33333300  0.16666700
   0.83333300  0.66666700  0.16666700
   0.33333300  0.50000000  0.16666700
   0.33333300  0.83333300  0.16666700
   0.66666700  0.50000000  0.16666700
   0.66666700  0.83333300  0.16666700
   0.00000000  0.00000000  0.33333300
   0.00000000  0.00000000  0.66666700
   0.16666700  0.16666700  0.33333300
   0.16666700  0.16666700  0.66666700
   0.16666700  0.00000000  0.50000000
   0.16666700  0.00000000  0.83333300
   0.00000000  0.16666700  0.50000000
   0.00000000  0.16666700  0.83333300
   0.33333300  0.00000000  0.33333300
   0.33333300  0.00000000  0.66666700
   0.66666700  0.00000000  0.33333300
   0.66666700  0.00000000  0.66666700
   0.50000000  0.16666700  0.33333300
   0.50000000  0.16666700  0.66666700
   0.83333300  0.16666700  0.33333300
   0.83333300  0.16666700  0.66666700
   0.50000000  0.00000000  0.50000000
   0.50000000  0.00000000  0.83333300
   0.83333300  0.00000000  0.50000000
   0.83333300  0.00000000  0.83333300
   0.33333300  0.16666700  0.50000000
   0.33333300  0.16666700  0.83333300
   0.66666700  0.16666700  0.50000000
   0.66666700  0.16666700  0.83333300
   0.00000000  0.33333300  0.33333300
   0.00000000  0.33333300  0.66666700
   0.00000000  0.66666700  0.33333300
   0.00000000  0.66666700  0.66666700
   0.16666700  0.50000000  0.33333300
   0.16666700  0.50000000  0.66666700
   0.16666700  0.83333300  0.33333300
   0.16666700  0.83333300  0.66666700
   0.16666700  0.33333300  0.50000000
   0.16666700  0.33333300  0.83333300
   0.16666700  0.66666700  0.50000000
   0.16666700  0.66666700  0.83333300
   0.00000000  0.50000000  0.50000000
   0.00000000  0.50000000  0.83333300
   0.00000000  0.83333300  0.50000000
   0.00000000  0.83333300  0.83333300
   0.33333300  0.33333300  0.33333300
   0.33333300  0.33333300  0.66666700
   0.33333300  0.66666700  0.33333300
   0.33333300  0.66666700  0.66666700
   0.66666700  0.33333300  0.33333300
   0.66666700  0.33333300  0.66666700
   0.66666700  0.66666700  0.33333300
   0.66666700  0.66666700  0.66666700
   0.50000000  0.50000000  0.33333300
   0.50000000  0.50000000  0.66666700
   0.50000000  0.83333300  0.33333300
   0.50000000  0.83333300  0.66666700
   0.83333300  0.50000000  0.33333300
   0.83333300  0.50000000  0.66666700
   0.83333300  0.83333300  0.33333300
   0.83333300  0.83333300  0.66666700
   0.50000000  0.33333300  0.50000000
   0.50000000  0.33333300  0.83333300
   0.50000000  0.66666700  0.50000000
   0.50000000  0.66666700  0.83333300
   0.83333300  0.33333300  0.50000000
   0.83333300  0.33333300  0.83333300
   0.83333300  0.66666700  0.50000000
   0.83333300  0.66666700  0.83333300
   0.33333300  0.50000000  0.50000000
   0.33333300  0.50000000  0.83333300
   0.33333300  0.83333300  0.50000000
   0.33333300  0.83333300  0.83333300
   0.66666700  0.50000000  0.50000000
   0.66666700  0.50000000  0.83333300
   0.66666700  0.83333300  0.50000000
   0.66666700  0.83333300  0.83333300
   0.08333300  0.08333300  0.08333300
   0.25000000  0.25000000  0.08333300
   0.08333300  0.25000000  0.25000000
   0.25000000  0.08333300  0.25000000
   0.41666700  0.08333300  0.08333300
   0.75000000  0.08333300  0.08333300
   0.58333300  0.25000000  0.08333300
   0.91666700  0.25000000  0.08333300
   0.41666700  0.25000000  0.25000000
   0.75000000  0.25000000  0.25000000
   0.58333300  0.08333300  0.25000000
   0.91666700  0.08333300  0.25000000
   0.08333300  0.41666700  0.08333300
   0.08333300  0.75000000  0.08333300
   0.25000000  0.58333300  0.08333300
   0.25000000  0.91666700  0.08333300
   0.08333300  0.58333300  0.25000000
   0.08333300  0.91666700  0.25000000
   0.25000000  0.41666700  0.25000000
   0.25000000  0.75000000  0.25000000
   0.41666700  0.41666700  0.08333300
   0.41666700  0.75000000  0.08333300
   0.75000000  0.41666700  0.08333300
   0.75000000  0.75000000  0.08333300
   0.58333300  0.58333300  0.08333300
   0.58333300  0.91666700  0.08333300
   0.91666700  0.58333300  0.08333300
   0.91666700  0.91666700  0.08333300
   0.41666700  0.58333300  0.25000000
   0.41666700  0.91666700  0.25000000
   0.75000000  0.58333300  0.25000000
   0.75000000  0.91666700  0.25000000
   0.58333300  0.41666700  0.25000000
   0.58333300  0.75000000  0.25000000
   0.91666700  0.41666700  0.25000000
   0.91666700  0.75000000  0.25000000
   0.08333300  0.08333300  0.41666700
   0.08333300  0.08333300  0.75000000
   0.25000000  0.25000000  0.41666700
   0.25000000  0.25000000  0.75000000
   0.08333300  0.25000000  0.58333300
   0.08333300  0.25000000  0.91666700
   0.25000000  0.08333300  0.58333300
   0.25000000  0.08333300  0.91666700
   0.41666700  0.08333300  0.41666700
   0.41666700  0.08333300  0.75000000
   0.75000000  0.08333300  0.41666700
   0.75000000  0.08333300  0.75000000
   0.58333300  0.25000000  0.41666700
   0.58333300  0.25000000  0.75000000
   0.91666700  0.25000000  0.41666700
   0.91666700  0.25000000  0.75000000
   0.41666700  0.25000000  0.58333300
   0.41666700  0.25000000  0.91666700
   0.75000000  0.25000000  0.58333300
   0.75000000  0.25000000  0.91666700
   0.58333300  0.08333300  0.58333300
   0.58333300  0.08333300  0.91666700
   0.91666700  0.08333300  0.58333300
   0.91666700  0.08333300  0.91666700
   0.08333300  0.41666700  0.41666700
   0.08333300  0.41666700  0.75000000
   0.08333300  0.75000000  0.41666700
   0.08333300  0.75000000  0.75000000
   0.25000000  0.58333300  0.41666700
   0.25000000  0.58333300  0.75000000
   0.25000000  0.91666700  0.41666700
   0.25000000  0.91666700  0.75000000
   0.08333300  0.58333300  0.58333300
   0.08333300  0.58333300  0.91666700
   0.08333300  0.91666700  0.58333300
   0.08333300  0.91666700  0.91666700
   0.25000000  0.41666700  0.58333300
   0.25000000  0.41666700  0.91666700
   0.25000000  0.75000000  0.58333300
   0.25000000  0.75000000  0.91666700
   0.41666700  0.41666700  0.41666700
   0.41666700  0.41666700  0.75000000
   0.41666700  0.75000000  0.41666700
   0.41666700  0.75000000  0.75000000
   0.75000000  0.41666700  0.41666700
   0.75000000  0.41666700  0.75000000
   0.75000000  0.75000000  0.41666700
   0.75000000  0.75000000  0.75000000
   0.58333300  0.58333300  0.41666700
   0.58333300  0.58333300  0.75000000
   0.58333300  0.91666700  0.41666700
   0.58333300  0.91666700  0.75000000
   0.91666700  0.58333300  0.41666700
   0.91666700  0.58333300  0.75000000
   0.91666700  0.91666700  0.41666700
   0.91666700  0.91666700  0.75000000
   0.41666700  0.58333300  0.58333300
   0.41666700  0.58333300  0.91666700
   0.41666700  0.91666700  0.58333300
   0.41666700  0.91666700  0.91666700
   0.75000000  0.58333300  0.58333300
   0.75000000  0.58333300  0.91666700
   0.75000000  0.91666700  0.58333300
   0.75000000  0.91666700  0.91666700
   0.58333300  0.41666700  0.58333300
   0.58333300  0.41666700  0.91666700
   0.58333300  0.75000000  0.58333300
   0.58333300  0.75000000  0.91666700
   0.91666700  0.41666700  0.58333300
   0.91666700  0.41666700  0.91666700
   0.91666700  0.75000000  0.58333300
   0.91666700  0.75000000  0.91666700
